 Entering Gaussian System, Link 0=g09
 Initial command:
 /global/software/gaussian/g16.a03/l1.exe "/scratch/10808165.yak.local/Gau-13577.inp" -scrdir="/scratch/10808165.yak.local/"
 Entering Link 1 = /global/software/gaussian/g16.a03/l1.exe PID=     13578.
  
 Copyright (c) 1988,1990,1992,1993,1995,1998,2003,2009,2016,
            Gaussian, Inc.  All Rights Reserved.
  
 This is part of the Gaussian(R) 16 program.  It is based on
 the Gaussian(R) 09 system (copyright 2009, Gaussian, Inc.),
 the Gaussian(R) 03 system (copyright 2003, Gaussian, Inc.),
 the Gaussian(R) 98 system (copyright 1998, Gaussian, Inc.),
 the Gaussian(R) 94 system (copyright 1995, Gaussian, Inc.),
 the Gaussian 92(TM) system (copyright 1992, Gaussian, Inc.),
 the Gaussian 90(TM) system (copyright 1990, Gaussian, Inc.),
 the Gaussian 88(TM) system (copyright 1988, Gaussian, Inc.),
 the Gaussian 86(TM) system (copyright 1986, Carnegie Mellon
 University), and the Gaussian 82(TM) system (copyright 1983,
 Carnegie Mellon University). Gaussian is a federally registered
 trademark of Gaussian, Inc.
  
 This software contains proprietary and confidential information,
 including trade secrets, belonging to Gaussian, Inc.
  
 This software is provided under written license and may be
 used, copied, transmitted, or stored only in accord with that
 written license.
  
 The following legend is applicable only to US Government
 contracts under FAR:
  
                    RESTRICTED RIGHTS LEGEND
  
 Use, reproduction and disclosure by the US Government is
 subject to restrictions as set forth in subparagraphs (a)
 and (c) of the Commercial Computer Software - Restricted
 Rights clause in FAR 52.227-19.
  
 Gaussian, Inc.
 340 Quinnipiac St., Bldg. 40, Wallingford CT 06492
  
  
 ---------------------------------------------------------------
 Warning -- This program may not be used in any manner that
 competes with the business of Gaussian, Inc. or will provide
 assistance to any competitor of Gaussian, Inc.  The licensee
 of this program is prohibited from giving any competitor of
 Gaussian, Inc. access to this program.  By using this program,
 the user acknowledges that Gaussian, Inc. is engaged in the
 business of creating and licensing software in the field of
 computational chemistry and represents and warrants to the
 licensee that it is not a competitor of Gaussian, Inc. and that
 it will not use this program in any manner prohibited above.
 ---------------------------------------------------------------
  

 Cite this work as:
 Gaussian 16, Revision A.03,
 M. J. Frisch, G. W. Trucks, H. B. Schlegel, G. E. Scuseria, 
 M. A. Robb, J. R. Cheeseman, G. Scalmani, V. Barone, 
 G. A. Petersson, H. Nakatsuji, X. Li, M. Caricato, A. V. Marenich, 
 J. Bloino, B. G. Janesko, R. Gomperts, B. Mennucci, H. P. Hratchian, 
 J. V. Ortiz, A. F. Izmaylov, J. L. Sonnenberg, D. Williams-Young, 
 F. Ding, F. Lipparini, F. Egidi, J. Goings, B. Peng, A. Petrone, 
 T. Henderson, D. Ranasinghe, V. G. Zakrzewski, J. Gao, N. Rega, 
 G. Zheng, W. Liang, M. Hada, M. Ehara, K. Toyota, R. Fukuda, 
 J. Hasegawa, M. Ishida, T. Nakajima, Y. Honda, O. Kitao, H. Nakai, 
 T. Vreven, K. Throssell, J. A. Montgomery, Jr., J. E. Peralta, 
 F. Ogliaro, M. J. Bearpark, J. J. Heyd, E. N. Brothers, K. N. Kudin, 
 V. N. Staroverov, T. A. Keith, R. Kobayashi, J. Normand, 
 K. Raghavachari, A. P. Rendell, J. C. Burant, S. S. Iyengar, 
 J. Tomasi, M. Cossi, J. M. Millam, M. Klene, C. Adamo, R. Cammi, 
 J. W. Ochterski, R. L. Martin, K. Morokuma, O. Farkas, 
 J. B. Foresman, and D. J. Fox, Gaussian, Inc., Wallingford CT, 2016.
 
 ******************************************
 Gaussian 16:  ES64L-G16RevA.03 25-Dec-2016
                 3-Jul-2017 
 ******************************************
 % chk=propane.chk
 ---------------------
 # hf/6-31g nosymm opt
 ---------------------
 1/18=20,19=15,38=1/1,3;
 2/9=110,12=2,15=1,17=6,18=5,40=1/2;
 3/5=1,6=6,11=9,25=1,30=1,71=1/1,2,3;
 4//1;
 5/5=2,38=5/2;
 6/7=2,8=2,9=2,10=2,28=1/1;
 7/30=1/1,2,3,16;
 1/18=20,19=15/3(2);
 2/9=110,15=1/2;
 99//99;
 2/9=110,15=1/2;
 3/5=1,6=6,11=9,25=1,30=1,71=1/1,2,3;
 4/5=5,16=3,69=1/1;
 5/5=2,38=5/2;
 7/30=1/1,2,3,16;
 1/18=20,19=15/3(-5);
 2/9=110,15=1/2;
 6/7=2,8=2,9=2,10=2,19=2,28=1/1;
 99/9=1/99;
 -------------------
 Title Card Required
 -------------------
 Symbolic Z-matrix:
 Charge =  0 Multiplicity = 1
 6                    -1.5374    3.31935   0.80143 
 6                    -1.2544    1.85791   0.42253 
 1                    -0.8227    3.98904   0.3303 
 1                    -2.53097   3.60703   0.46578 
 1                    -1.48992   3.47839   1.87288 
 6                    -1.19133   1.66354  -1.10875 
 1                    -0.31683   1.53386   0.87659 
 1                    -2.0305    1.22317   0.85137 
 1                    -1.74094   2.49928  -1.61812 
 1                    -0.12571   1.67178  -1.47405 
 1                    -1.6622    0.69016  -1.42044 
 

 GradGradGradGradGradGradGradGradGradGradGradGradGradGradGradGradGradGrad
 Berny optimization.
 Initialization pass.
                           ----------------------------
                           !    Initial Parameters    !
                           ! (Angstroms and Degrees)  !
 --------------------------                            --------------------------
 ! Name  Definition              Value          Derivative Info.                !
 --------------------------------------------------------------------------------
 ! R1    R(1,2)                  1.5361         estimate D2E/DX2                !
 ! R2    R(1,3)                  1.0868         estimate D2E/DX2                !
 ! R3    R(1,4)                  1.0875         estimate D2E/DX2                !
 ! R4    R(1,5)                  1.0842         estimate D2E/DX2                !
 ! R5    R(2,6)                  1.5449         estimate D2E/DX2                !
 ! R6    R(2,7)                  1.091          estimate D2E/DX2                !
 ! R7    R(2,8)                  1.0905         estimate D2E/DX2                !
 ! R8    R(6,9)                  1.1225         estimate D2E/DX2                !
 ! R9    R(6,10)                 1.1265         estimate D2E/DX2                !
 ! R10   R(6,11)                 1.1253         estimate D2E/DX2                !
 ! A1    A(2,1,3)              110.9876         estimate D2E/DX2                !
 ! A2    A(2,1,4)              110.1135         estimate D2E/DX2                !
 ! A3    A(2,1,5)              112.0401         estimate D2E/DX2                !
 ! A4    A(3,1,4)              107.6981         estimate D2E/DX2                !
 ! A5    A(3,1,5)              108.0105         estimate D2E/DX2                !
 ! A6    A(4,1,5)              107.8319         estimate D2E/DX2                !
 ! A7    A(1,2,6)              111.8225         estimate D2E/DX2                !
 ! A8    A(1,2,7)              109.7715         estimate D2E/DX2                !
 ! A9    A(1,2,8)              109.0061         estimate D2E/DX2                !
 ! A10   A(6,2,7)              109.882          estimate D2E/DX2                !
 ! A11   A(6,2,8)              110.2199         estimate D2E/DX2                !
 ! A12   A(7,2,8)              105.9663         estimate D2E/DX2                !
 ! A13   A(2,6,9)              109.6413         estimate D2E/DX2                !
 ! A14   A(2,6,10)             111.0459         estimate D2E/DX2                !
 ! A15   A(2,6,11)             111.4871         estimate D2E/DX2                !
 ! A16   A(9,6,10)             108.0934         estimate D2E/DX2                !
 ! A17   A(9,6,11)             108.2673         estimate D2E/DX2                !
 ! A18   A(10,6,11)            108.1994         estimate D2E/DX2                !
 ! D1    D(3,1,2,6)            -53.7816         estimate D2E/DX2                !
 ! D2    D(3,1,2,7)             68.4418         estimate D2E/DX2                !
 ! D3    D(3,1,2,8)           -175.9018         estimate D2E/DX2                !
 ! D4    D(4,1,2,6)             65.3774         estimate D2E/DX2                !
 ! D5    D(4,1,2,7)           -172.3992         estimate D2E/DX2                !
 ! D6    D(4,1,2,8)            -56.7428         estimate D2E/DX2                !
 ! D7    D(5,1,2,6)           -174.617          estimate D2E/DX2                !
 ! D8    D(5,1,2,7)            -52.3936         estimate D2E/DX2                !
 ! D9    D(5,1,2,8)             63.2628         estimate D2E/DX2                !
 ! D10   D(1,2,6,9)            -21.8353         estimate D2E/DX2                !
 ! D11   D(1,2,6,10)            97.5481         estimate D2E/DX2                !
 ! D12   D(1,2,6,11)          -141.714          estimate D2E/DX2                !
 ! D13   D(7,2,6,9)           -143.9955         estimate D2E/DX2                !
 ! D14   D(7,2,6,10)           -24.6121         estimate D2E/DX2                !
 ! D15   D(7,2,6,11)            96.1259         estimate D2E/DX2                !
 ! D16   D(8,2,6,9)             99.5864         estimate D2E/DX2                !
 ! D17   D(8,2,6,10)          -141.0302         estimate D2E/DX2                !
 ! D18   D(8,2,6,11)           -20.2922         estimate D2E/DX2                !
 --------------------------------------------------------------------------------
 Trust Radius=3.00D-01 FncErr=1.00D-07 GrdErr=1.00D-07 EigMax=2.50D+02 EigMin=1.00D-04
 Number of steps in this run=     56 maximum allowed number of steps=    100.
 GradGradGradGradGradGradGradGradGradGradGradGradGradGradGradGradGradGrad

                          Input orientation:                          
 ---------------------------------------------------------------------
 Center     Atomic      Atomic             Coordinates (Angstroms)
 Number     Number       Type             X           Y           Z
 ---------------------------------------------------------------------
      1          6           0       -1.537399    3.319351    0.801433
      2          6           0       -1.254395    1.857911    0.422531
      3          1           0       -0.822705    3.989044    0.330304
      4          1           0       -2.530967    3.607027    0.465777
      5          1           0       -1.489918    3.478390    1.872878
      6          6           0       -1.191330    1.663539   -1.108755
      7          1           0       -0.316827    1.533864    0.876587
      8          1           0       -2.030495    1.223173    0.851372
      9          1           0       -1.740943    2.499278   -1.618123
     10          1           0       -0.125712    1.671784   -1.474052
     11          1           0       -1.662196    0.690158   -1.420439
 ---------------------------------------------------------------------
                    Distance matrix (angstroms):
                    1          2          3          4          5
     1  C    0.000000
     2  C    1.536055   0.000000
     3  H    1.086849   2.176371   0.000000
     4  H    1.087474   2.165852   1.755691   0.000000
     5  H    1.084224   2.187449   1.756553   1.755067   0.000000
     6  C    2.551528   1.544861   2.759483   2.837415   3.503281
     7  H    2.164118   1.090966   2.565589   3.060912   2.479904
     8  H    2.153973   1.090471   3.062730   2.466154   2.534108
     9  H    2.562850   2.193707   2.618956   2.488752   3.634386
    10  H    3.144069   2.214858   3.018475   3.646005   4.040647
    11  H    3.444553   2.219569   3.827858   3.580601   4.318548
                    6          7          8          9         10
     6  C    0.000000
     7  H    2.173281   0.000000
     8  H    2.177204   1.741788   0.000000
     9  H    1.122493   3.030463   2.794761   0.000000
    10  H    1.126521   2.362424   3.039251   1.820569   0.000000
    11  H    1.125314   2.792523   2.362388   1.821591   1.824074
                   11
    11  H    0.000000
 Symmetry turned off by external request.
 Stoichiometry    C3H8
 Framework group  C1[X(C3H8)]
 Deg. of freedom    27
 Full point group                 C1      NOp   1
 Rotational constants (GHZ):          28.8242467           8.3778106           7.3946548
 Standard basis: 6-31G (6D, 7F)
    43 basis functions,    98 primitive gaussians,    43 cartesian basis functions
    13 alpha electrons       13 beta electrons
       nuclear repulsion energy        82.0182033476 Hartrees.
 NAtoms=   11 NActive=   11 NUniq=   11 SFac= 1.00D+00 NAtFMM=   60 NAOKFM=F Big=F
 Integral buffers will be    131072 words long.
 Raffenetti 1 integral format.
 Two-electron integral symmetry is turned off.
 One-electron integrals computed using PRISM.
 NBasis=    43 RedAO= T EigKep=  7.41D-03  NBF=    43
 NBsUse=    43 1.00D-06 EigRej= -1.00D+00 NBFU=    43
 ExpMin= 1.61D-01 ExpMax= 3.05D+03 ExpMxC= 4.57D+02 IAcc=3 IRadAn=         5 AccDes= 0.00D+00
 Harris functional with IExCor=  205 and IRadAn=       5 diagonalized for initial guess.
 HarFok:  IExCor=  205 AccDes= 0.00D+00 IRadAn=         5 IDoV= 1 UseB2=F ITyADJ=14
 ICtDFT=  3500011 ScaDFX=  1.000000  1.000000  1.000000  1.000000
 FoFCou: FMM=F IPFlag=           0 FMFlag=      100000 FMFlg1=           0
         NFxFlg=           0 DoJE=T BraDBF=F KetDBF=T FulRan=T
         wScrn=  0.000000 ICntrl=       500 IOpCl=  0 I1Cent=   200000004 NGrid=           0
         NMat0=    1 NMatS0=      1 NMatT0=    0 NMatD0=    1 NMtDS0=    0 NMtDT0=    0
 Symmetry not used in FoFCou.
 Keep R1 ints in memory in canonical form, NReq=1277909.
 Requested convergence on RMS density matrix=1.00D-08 within 128 cycles.
 Requested convergence on MAX density matrix=1.00D-06.
 Requested convergence on             energy=1.00D-06.
 No special actions if energy rises.
 SCF Done:  E(RHF) =  -118.209164039     A.U. after   10 cycles
            NFock= 10  Conv=0.99D-08     -V/T= 1.9998

 **********************************************************************

            Population analysis using the SCF density.

 **********************************************************************

 Alpha  occ. eigenvalues --  -11.22260 -11.22087 -11.20963  -1.05204  -0.92228
 Alpha  occ. eigenvalues --   -0.80183  -0.62034  -0.59604  -0.54147  -0.52916
 Alpha  occ. eigenvalues --   -0.47256  -0.46774  -0.45990
 Alpha virt. eigenvalues --    0.23076   0.28009   0.28880   0.29100   0.31701
 Alpha virt. eigenvalues --    0.32124   0.33139   0.38503   0.40424   0.44033
 Alpha virt. eigenvalues --    0.75034   0.75515   0.76816   0.82304   0.83346
 Alpha virt. eigenvalues --    0.92932   0.96689   0.98815   1.04160   1.18328
 Alpha virt. eigenvalues --    1.18514   1.20842   1.22397   1.22727   1.25633
 Alpha virt. eigenvalues --    1.27210   1.28423   1.29501   1.58886   1.84842
          Condensed to atoms (all electrons):
               1          2          3          4          5          6
     1  C    5.151663   0.285942   0.389282   0.388919   0.387498  -0.061772
     2  C    0.285942   5.210533  -0.044927  -0.044261  -0.038651   0.256071
     3  H    0.389282  -0.044927   0.567824  -0.032046  -0.030508  -0.002637
     4  H    0.388919  -0.044261  -0.032046   0.568561  -0.030166  -0.003264
     5  H    0.387498  -0.038651  -0.030508  -0.030166   0.561228   0.004754
     6  C   -0.061772   0.256071  -0.002637  -0.003264   0.004754   5.198962
     7  H   -0.044007   0.399784  -0.002498   0.004265  -0.002495  -0.043216
     8  H   -0.045295   0.401930   0.004352  -0.003932  -0.001805  -0.044388
     9  H   -0.006078  -0.049626   0.000236   0.002522   0.000233   0.388281
    10  H    0.001055  -0.040175   0.001033  -0.000008  -0.000150   0.383539
    11  H    0.003849  -0.038753   0.000012  -0.000011  -0.000118   0.383813
               7          8          9         10         11
     1  C   -0.044007  -0.045295  -0.006078   0.001055   0.003849
     2  C    0.399784   0.401930  -0.049626  -0.040175  -0.038753
     3  H   -0.002498   0.004352   0.000236   0.001033   0.000012
     4  H    0.004265  -0.003932   0.002522  -0.000008  -0.000011
     5  H   -0.002495  -0.001805   0.000233  -0.000150  -0.000118
     6  C   -0.043216  -0.044388   0.388281   0.383539   0.383813
     7  H    0.569106  -0.034275   0.003661  -0.006250   0.001370
     8  H   -0.034275   0.569789   0.001197   0.003438  -0.005457
     9  H    0.003661   0.001197   0.565829  -0.028255  -0.028267
    10  H   -0.006250   0.003438  -0.028255   0.562784  -0.027181
    11  H    0.001370  -0.005457  -0.028267  -0.027181   0.560591
 Mulliken charges:
               1
     1  C   -0.451057
     2  C   -0.297867
     3  H    0.149876
     4  H    0.149422
     5  H    0.150179
     6  C   -0.460143
     7  H    0.154555
     8  H    0.154445
     9  H    0.150267
    10  H    0.150170
    11  H    0.150152
 Sum of Mulliken charges =  -0.00000
 Mulliken charges with hydrogens summed into heavy atoms:
               1
     1  C   -0.001579
     2  C    0.011132
     6  C   -0.009553
 Electronic spatial extent (au):  <R**2>=            884.1460
 Charge=              0.0000 electrons
 Dipole moment (field-independent basis, Debye):
    X=              0.0007    Y=             -0.0268    Z=              0.0869  Tot=              0.0910
 Quadrupole moment (field-independent basis, Debye-Ang):
   XX=            -21.7895   YY=            -22.3745   ZZ=            -22.4241
   XY=              0.1421   XZ=             -0.0745   YZ=              0.0078
 Traceless Quadrupole moment (field-independent basis, Debye-Ang):
   XX=              0.4065   YY=             -0.1784   ZZ=             -0.2281
   XY=              0.1421   XZ=             -0.0745   YZ=              0.0078
 Octapole moment (field-independent basis, Debye-Ang**2):
  XXX=             87.4869  YYY=           -154.4304  ZZZ=              0.6602  XYY=             29.8658
  XXY=            -50.4556  XXZ=             -0.5552  XZZ=             29.8487  YZZ=            -51.1018
  YYZ=             -1.2629  XYZ=              0.1317
 Hexadecapole moment (field-independent basis, Debye-Ang**3):
 XXXX=           -280.3231 YYYY=           -838.4420 ZZZZ=           -147.0819 XXXY=            209.2638
 XXXZ=              8.8522 YYYX=            214.8185 YYYZ=            -40.5830 ZZZX=              6.5982
 ZZZY=            -31.1077 XXYY=           -183.4845 XXZZ=            -71.9231 YYZZ=           -161.8348
 XXYZ=            -13.2354 YYXZ=              5.0834 ZZXY=             70.7929
 N-N= 8.201820334764D+01 E-N=-4.384551350498D+02  KE= 1.182333375577D+02
 Calling FoFJK, ICntrl=      2127 FMM=F ISym2X=0 I1Cent= 0 IOpClX= 0 NMat=1 NMatS=1 NMatT=0.
 -------------------------------------------------------------------
 Center     Atomic                   Forces (Hartrees/Bohr)
 Number     Number              X              Y              Z
 -------------------------------------------------------------------
      1        6           0.000069967   -0.000896220   -0.000968766
      2        6           0.000490929   -0.000791089    0.001546898
      3        1          -0.000326547   -0.000746832    0.001018891
      4        1           0.001652821    0.000330121    0.000481255
      5        1           0.000212960   -0.000651038    0.000167830
      6        6           0.001349313   -0.003697442   -0.017527565
      7        1          -0.003360506    0.001019607   -0.001712376
      8        1           0.001922434    0.002435348   -0.001962409
      9        1           0.011706223   -0.020654872    0.007308129
     10        1          -0.026465786    0.000583252    0.006452772
     11        1           0.012748193    0.023069165    0.005195340
 -------------------------------------------------------------------
 Cartesian Forces:  Max     0.026465786 RMS     0.008603923

 GradGradGradGradGradGradGradGradGradGradGradGradGradGradGradGradGradGrad
 Berny optimization.
 FormGI is forming the generalized inverse of G from B-inverse, IUseBI=4.
 Internal  Forces:  Max     0.027123119 RMS     0.006901980
 Search for a local minimum.
 Step number   1 out of a maximum of   56
 All quantities printed in internal units (Hartrees-Bohrs-Radians)
 Mixed Optimization -- RFO/linear search
 Second derivative matrix not updated -- first step.
 ITU=  0
     Eigenvalues ---    0.00230   0.00289   0.03495   0.04753   0.05359
     Eigenvalues ---    0.05384   0.05564   0.05579   0.08176   0.12098
     Eigenvalues ---    0.16000   0.16000   0.16000   0.16000   0.16000
     Eigenvalues ---    0.16000   0.21862   0.28093   0.28871   0.30912
     Eigenvalues ---    0.31031   0.31312   0.34701   0.34758   0.35106
     Eigenvalues ---    0.35179   0.35489
 RFO step:  Lambda=-7.77016422D-03 EMin= 2.30000000D-03
 Linear search not attempted -- first point.
 Iteration  1 RMS(Cart)=  0.04947351 RMS(Int)=  0.00197220
 Iteration  2 RMS(Cart)=  0.00195287 RMS(Int)=  0.00008074
 Iteration  3 RMS(Cart)=  0.00000247 RMS(Int)=  0.00008070
 Iteration  4 RMS(Cart)=  0.00000000 RMS(Int)=  0.00008070
 Variable       Old X    -DE/DX   Delta X   Delta X   Delta X     New X
                                 (Linear)    (Quad)   (Total)
    R1        2.90272  -0.00199   0.00000  -0.00672  -0.00672   2.89600
    R2        2.05385  -0.00112   0.00000  -0.00311  -0.00311   2.05074
    R3        2.05503  -0.00157   0.00000  -0.00438  -0.00438   2.05065
    R4        2.04889   0.00008   0.00000   0.00022   0.00022   2.04911
    R5        2.91936  -0.00136   0.00000  -0.00469  -0.00469   2.91467
    R6        2.06163  -0.00390   0.00000  -0.01100  -0.01100   2.05062
    R7        2.06069  -0.00356   0.00000  -0.01001  -0.01001   2.05068
    R8        2.12120  -0.02443   0.00000  -0.07612  -0.07612   2.04508
    R9        2.12882  -0.02712   0.00000  -0.08559  -0.08559   2.04322
   R10        2.12654  -0.02673   0.00000  -0.08403  -0.08403   2.04251
    A1        1.93710  -0.00004   0.00000  -0.00087  -0.00090   1.93620
    A2        1.92184   0.00135   0.00000   0.01018   0.01018   1.93203
    A3        1.95547  -0.00128   0.00000  -0.00915  -0.00916   1.94631
    A4        1.87969  -0.00030   0.00000   0.00117   0.00115   1.88083
    A5        1.88514   0.00021   0.00000  -0.00270  -0.00274   1.88240
    A6        1.88202   0.00008   0.00000   0.00159   0.00162   1.88364
    A7        1.95167   0.00412   0.00000   0.01908   0.01907   1.97074
    A8        1.91587  -0.00204   0.00000  -0.01332  -0.01328   1.90260
    A9        1.90252  -0.00043   0.00000   0.00447   0.00446   1.90697
   A10        1.91780  -0.00090   0.00000  -0.00511  -0.00506   1.91275
   A11        1.92370  -0.00182   0.00000  -0.00717  -0.00729   1.91641
   A12        1.84946   0.00087   0.00000   0.00100   0.00098   1.85044
   A13        1.91360   0.00540   0.00000   0.03427   0.03400   1.94760
   A14        1.93812   0.00189   0.00000   0.01051   0.01037   1.94849
   A15        1.94582   0.00193   0.00000   0.01018   0.01006   1.95588
   A16        1.88659  -0.00343   0.00000  -0.01788  -0.01815   1.86844
   A17        1.88962  -0.00366   0.00000  -0.02039  -0.02063   1.86899
   A18        1.88844  -0.00254   0.00000  -0.01899  -0.01898   1.86946
    D1       -0.93867  -0.00060   0.00000  -0.02133  -0.02127  -0.95994
    D2        1.19453  -0.00038   0.00000  -0.02424  -0.02425   1.17029
    D3       -3.07007  -0.00072   0.00000  -0.02791  -0.02794  -3.09801
    D4        1.14105  -0.00013   0.00000  -0.01388  -0.01381   1.12724
    D5       -3.00893   0.00009   0.00000  -0.01679  -0.01679  -3.02572
    D6       -0.99035  -0.00025   0.00000  -0.02046  -0.02048  -1.01083
    D7       -3.04764   0.00004   0.00000  -0.01097  -0.01093  -3.05857
    D8       -0.91444   0.00026   0.00000  -0.01387  -0.01390  -0.92834
    D9        1.10414  -0.00008   0.00000  -0.01754  -0.01760   1.08655
   D10       -0.38110  -0.00135   0.00000  -0.08967  -0.08967  -0.47076
   D11        1.70253  -0.00095   0.00000  -0.08326  -0.08317   1.61936
   D12       -2.47338  -0.00157   0.00000  -0.09326  -0.09331  -2.56668
   D13       -2.51320  -0.00092   0.00000  -0.08208  -0.08208  -2.59528
   D14       -0.42956  -0.00052   0.00000  -0.07567  -0.07559  -0.50515
   D15        1.67771  -0.00114   0.00000  -0.08567  -0.08573   1.59199
   D16        1.73811  -0.00038   0.00000  -0.07606  -0.07610   1.66202
   D17       -2.46144   0.00002   0.00000  -0.06965  -0.06960  -2.53104
   D18       -0.35417  -0.00059   0.00000  -0.07965  -0.07974  -0.43390
         Item               Value     Threshold  Converged?
 Maximum Force            0.027123     0.000450     NO 
 RMS     Force            0.006902     0.000300     NO 
 Maximum Displacement     0.179906     0.001800     NO 
 RMS     Displacement     0.049436     0.001200     NO 
 Predicted change in Energy=-4.225759D-03
 GradGradGradGradGradGradGradGradGradGradGradGradGradGradGradGradGradGrad

                          Input orientation:                          
 ---------------------------------------------------------------------
 Center     Atomic      Atomic             Coordinates (Angstroms)
 Number     Number       Type             X           Y           Z
 ---------------------------------------------------------------------
      1          6           0       -1.527117    3.324364    0.807731
      2          6           0       -1.268835    1.865798    0.414757
      3          1           0       -0.786839    3.982365    0.364230
      4          1           0       -2.504725    3.646733    0.464329
      5          1           0       -1.489981    3.459069    1.883031
      6          6           0       -1.198319    1.658642   -1.112017
      7          1           0       -0.340582    1.536132    0.869954
      8          1           0       -2.048017    1.238397    0.835287
      9          1           0       -1.776664    2.404076   -1.642137
     10          1           0       -0.182867    1.726486   -1.477130
     11          1           0       -1.578942    0.691458   -1.408523
 ---------------------------------------------------------------------
                    Distance matrix (angstroms):
                    1          2          3          4          5
     1  C    0.000000
     2  C    1.532499   0.000000
     3  H    1.085205   2.171343   0.000000
     4  H    1.085156   2.168320   1.753226   0.000000
     5  H    1.084341   2.177899   1.753569   1.754320   0.000000
     6  C    2.562845   1.542377   2.783579   2.853782   3.506696
     7  H    2.146977   1.085144   2.537510   3.050030   2.458684
     8  H    2.150199   1.085174   3.056440   2.479168   2.518046
     9  H    2.628889   2.185966   2.737930   2.551758   3.690801
    10  H    3.095289   2.185857   2.973951   3.584360   4.000134
    11  H    3.441898   2.190797   3.821014   3.619157   4.301385
                    6          7          8          9         10
     6  C    0.000000
     7  H    2.163084   0.000000
     8  H    2.165775   1.733546   0.000000
     9  H    1.082212   3.020970   2.751376   0.000000
    10  H    1.081228   2.360066   3.010695   1.739697   0.000000
    11  H    1.080848   2.727355   2.356662   1.739750   1.739257
                   11
    11  H    0.000000
 Symmetry turned off by external request.
 Stoichiometry    C3H8
 Framework group  C1[X(C3H8)]
 Deg. of freedom    27
 Full point group                 C1      NOp   1
 Rotational constants (GHZ):          29.7177771           8.3378732           7.3839839
 Standard basis: 6-31G (6D, 7F)
    43 basis functions,    98 primitive gaussians,    43 cartesian basis functions
    13 alpha electrons       13 beta electrons
       nuclear repulsion energy        82.5105817629 Hartrees.
 NAtoms=   11 NActive=   11 NUniq=   11 SFac= 1.00D+00 NAtFMM=   60 NAOKFM=F Big=F
 Integral buffers will be    131072 words long.
 Raffenetti 1 integral format.
 Two-electron integral symmetry is turned off.
 One-electron integrals computed using PRISM.
 NBasis=    43 RedAO= T EigKep=  7.33D-03  NBF=    43
 NBsUse=    43 1.00D-06 EigRej= -1.00D+00 NBFU=    43
 Initial guess from the checkpoint file:  "propane.chk"
 B after Tr=    -0.022641   -0.007799   -0.003079
         Rot=    0.999998   -0.000086   -0.000121    0.002137 Ang=  -0.25 deg.
 ExpMin= 1.61D-01 ExpMax= 3.05D+03 ExpMxC= 4.57D+02 IAcc=2 IRadAn=         4 AccDes= 0.00D+00
 Harris functional with IExCor=  205 and IRadAn=       4 diagonalized for initial guess.
 HarFok:  IExCor=  205 AccDes= 0.00D+00 IRadAn=         4 IDoV= 1 UseB2=F ITyADJ=14
 ICtDFT=  3500011 ScaDFX=  1.000000  1.000000  1.000000  1.000000
 FoFCou: FMM=F IPFlag=           0 FMFlag=      100000 FMFlg1=           0
         NFxFlg=           0 DoJE=T BraDBF=F KetDBF=T FulRan=T
         wScrn=  0.000000 ICntrl=       500 IOpCl=  0 I1Cent=   200000004 NGrid=           0
         NMat0=    1 NMatS0=      1 NMatT0=    0 NMatD0=    1 NMtDS0=    0 NMtDT0=    0
 Symmetry not used in FoFCou.
 Keep R1 ints in memory in canonical form, NReq=1277939.
 Requested convergence on RMS density matrix=1.00D-08 within 128 cycles.
 Requested convergence on MAX density matrix=1.00D-06.
 Requested convergence on             energy=1.00D-06.
 No special actions if energy rises.
 SCF Done:  E(RHF) =  -118.213126981     A.U. after    9 cycles
            NFock=  9  Conv=0.91D-08     -V/T= 1.9981
 Calling FoFJK, ICntrl=      2127 FMM=F ISym2X=0 I1Cent= 0 IOpClX= 0 NMat=1 NMatS=1 NMatT=0.
 -------------------------------------------------------------------
 Center     Atomic                   Forces (Hartrees/Bohr)
 Number     Number              X              Y              Z
 -------------------------------------------------------------------
      1        6           0.000521797   -0.000317944   -0.000871906
      2        6          -0.000056209    0.000038196   -0.001782312
      3        1           0.000203462    0.000246950    0.000225910
      4        1           0.000178090    0.000399947   -0.000061409
      5        1          -0.000147103   -0.000201004    0.000125349
      6        6           0.000097495    0.000361174    0.001679683
      7        1           0.000238032   -0.001254365   -0.000269364
      8        1          -0.001007613    0.000685206   -0.000052035
      9        1          -0.002570788    0.001353262    0.000185246
     10        1           0.002636978    0.001697224    0.000036824
     11        1          -0.000094141   -0.003008646    0.000784014
 -------------------------------------------------------------------
 Cartesian Forces:  Max     0.003008646 RMS     0.001085420

 GradGradGradGradGradGradGradGradGradGradGradGradGradGradGradGradGradGrad
 Berny optimization.
 Using GEDIIS/GDIIS optimizer.
 FormGI is forming the generalized inverse of G from B-inverse, IUseBI=4.
 Internal  Forces:  Max     0.002709547 RMS     0.000966556
 Search for a local minimum.
 Step number   2 out of a maximum of   56
 All quantities printed in internal units (Hartrees-Bohrs-Radians)
 Mixed Optimization -- En-DIIS/RFO-DIIS
 Update second derivatives using D2CorX and points    1    2
 DE= -3.96D-03 DEPred=-4.23D-03 R= 9.38D-01
 TightC=F SS=  1.41D+00  RLast= 2.96D-01 DXNew= 5.0454D-01 8.8797D-01
 Trust test= 9.38D-01 RLast= 2.96D-01 DXMaxT set to 5.05D-01
 ITU=  1  0
 Use linear search instead of GDIIS.
     Eigenvalues ---    0.00223   0.00289   0.03401   0.04738   0.05268
     Eigenvalues ---    0.05319   0.05416   0.05505   0.08347   0.12233
     Eigenvalues ---    0.15942   0.16000   0.16000   0.16000   0.16000
     Eigenvalues ---    0.16482   0.21907   0.27688   0.28866   0.30967
     Eigenvalues ---    0.31215   0.34455   0.34740   0.35102   0.35147
     Eigenvalues ---    0.35475   0.35658
 RFO step:  Lambda=-1.65179326D-03 EMin= 2.22557389D-03
 Quartic linear search produced a step of -0.01469.
 Iteration  1 RMS(Cart)=  0.08985008 RMS(Int)=  0.00699937
 Iteration  2 RMS(Cart)=  0.00723125 RMS(Int)=  0.00004176
 Iteration  3 RMS(Cart)=  0.00004082 RMS(Int)=  0.00000700
 Iteration  4 RMS(Cart)=  0.00000000 RMS(Int)=  0.00000700
 Variable       Old X    -DE/DX   Delta X   Delta X   Delta X     New X
                                 (Linear)    (Quad)   (Total)
    R1        2.89600  -0.00015   0.00010  -0.00098  -0.00089   2.89512
    R2        2.05074   0.00020   0.00005   0.00031   0.00036   2.05110
    R3        2.05065  -0.00002   0.00006  -0.00037  -0.00030   2.05034
    R4        2.04911   0.00009  -0.00000   0.00027   0.00026   2.04937
    R5        2.91467  -0.00271   0.00007  -0.00947  -0.00940   2.90527
    R6        2.05062   0.00047   0.00016   0.00051   0.00067   2.05130
    R7        2.05068   0.00031   0.00015   0.00013   0.00028   2.05096
    R8        2.04508   0.00222   0.00112   0.00132   0.00244   2.04752
    R9        2.04322   0.00257   0.00126   0.00182   0.00308   2.04630
   R10        2.04251   0.00251   0.00123   0.00172   0.00295   2.04546
    A1        1.93620   0.00025   0.00001   0.00141   0.00142   1.93761
    A2        1.93203   0.00055  -0.00015   0.00453   0.00437   1.93640
    A3        1.94631  -0.00042   0.00013  -0.00370  -0.00357   1.94275
    A4        1.88083  -0.00030  -0.00002  -0.00063  -0.00066   1.88017
    A5        1.88240  -0.00002   0.00004  -0.00132  -0.00128   1.88112
    A6        1.88364  -0.00008  -0.00002  -0.00037  -0.00039   1.88325
    A7        1.97074  -0.00024  -0.00028  -0.00025  -0.00053   1.97022
    A8        1.90260   0.00026   0.00020   0.00059   0.00078   1.90338
    A9        1.90697   0.00014  -0.00007   0.00197   0.00190   1.90887
   A10        1.91275  -0.00023   0.00007  -0.00360  -0.00353   1.90922
   A11        1.91641   0.00001   0.00011  -0.00090  -0.00079   1.91562
   A12        1.85044   0.00008  -0.00001   0.00238   0.00236   1.85280
   A13        1.94760  -0.00140  -0.00050  -0.00623  -0.00675   1.94085
   A14        1.94849  -0.00097  -0.00015  -0.00451  -0.00468   1.94381
   A15        1.95588  -0.00140  -0.00015  -0.00756  -0.00772   1.94816
   A16        1.86844   0.00127   0.00027   0.00625   0.00651   1.87495
   A17        1.86899   0.00142   0.00030   0.00603   0.00630   1.87530
   A18        1.86946   0.00137   0.00028   0.00750   0.00776   1.87722
    D1       -0.95994  -0.00018   0.00031  -0.03511  -0.03480  -0.99475
    D2        1.17029  -0.00044   0.00036  -0.03945  -0.03910   1.13119
    D3       -3.09801  -0.00012   0.00041  -0.03521  -0.03480  -3.13281
    D4        1.12724  -0.00003   0.00020  -0.03203  -0.03182   1.09541
    D5       -3.02572  -0.00029   0.00025  -0.03637  -0.03612  -3.06184
    D6       -1.01083   0.00003   0.00030  -0.03213  -0.03182  -1.04265
    D7       -3.05857  -0.00004   0.00016  -0.03191  -0.03175  -3.09032
    D8       -0.92834  -0.00030   0.00020  -0.03625  -0.03605  -0.96439
    D9        1.08655   0.00002   0.00026  -0.03201  -0.03175   1.05480
   D10       -0.47076  -0.00084   0.00132  -0.20875  -0.20742  -0.67819
   D11        1.61936  -0.00084   0.00122  -0.20812  -0.20689   1.41247
   D12       -2.56668  -0.00072   0.00137  -0.20690  -0.20553  -2.77221
   D13       -2.59528  -0.00085   0.00121  -0.20676  -0.20555  -2.80082
   D14       -0.50515  -0.00085   0.00111  -0.20613  -0.20502  -0.71017
   D15        1.59199  -0.00073   0.00126  -0.20491  -0.20365   1.38834
   D16        1.66202  -0.00083   0.00112  -0.20704  -0.20592   1.45610
   D17       -2.53104  -0.00082   0.00102  -0.20641  -0.20539  -2.73643
   D18       -0.43390  -0.00071   0.00117  -0.20519  -0.20402  -0.63793
         Item               Value     Threshold  Converged?
 Maximum Force            0.002710     0.000450     NO 
 RMS     Force            0.000967     0.000300     NO 
 Maximum Displacement     0.308802     0.001800     NO 
 RMS     Displacement     0.092345     0.001200     NO 
 Predicted change in Energy=-1.131219D-03
 GradGradGradGradGradGradGradGradGradGradGradGradGradGradGradGradGradGrad

                          Input orientation:                          
 ---------------------------------------------------------------------
 Center     Atomic      Atomic             Coordinates (Angstroms)
 Number     Number       Type             X           Y           Z
 ---------------------------------------------------------------------
      1          6           0       -1.497922    3.327935    0.804870
      2          6           0       -1.292525    1.861776    0.410784
      3          1           0       -0.707268    3.953509    0.402874
      4          1           0       -2.442020    3.703341    0.424127
      5          1           0       -1.500984    3.449698    1.882489
      6          6           0       -1.210224    1.657548   -1.110770
      7          1           0       -0.381764    1.494682    0.873459
      8          1           0       -2.100816    1.262904    0.818140
      9          1           0       -1.913974    2.296700   -1.630572
     10          1           0       -0.221855    1.889896   -1.487228
     11          1           0       -1.433536    0.635529   -1.388659
 ---------------------------------------------------------------------
                    Distance matrix (angstroms):
                    1          2          3          4          5
     1  C    0.000000
     2  C    1.532030   0.000000
     3  H    1.085393   2.172082   0.000000
     4  H    1.084995   2.170917   1.752827   0.000000
     5  H    1.084480   2.175056   1.753018   1.754052   0.000000
     6  C    2.557859   1.537404   2.795625   2.838750   3.500849
     7  H    2.147401   1.085500   2.524527   3.053642   2.468377
     8  H    2.151281   1.085321   3.058395   2.495476   2.504936
     9  H    2.677297   2.177727   2.887223   2.545439   3.720425
    10  H    2.991658   2.179352   2.840178   3.445431   3.927359
    11  H    3.473437   2.182100   3.840058   3.703337   4.315611
                    6          7          8          9         10
     6  C    0.000000
     7  H    2.156394   0.000000
     8  H    2.160925   1.735488   0.000000
     9  H    1.083501   3.043201   2.664552   0.000000
    10  H    1.082857   2.398877   3.039464   1.746226   0.000000
    11  H    1.082411   2.638473   2.389314   1.746090   1.746804
                   11
    11  H    0.000000
 Symmetry turned off by external request.
 Stoichiometry    C3H8
 Framework group  C1[X(C3H8)]
 Deg. of freedom    27
 Full point group                 C1      NOp   1
 Rotational constants (GHZ):          29.7345863           8.3686432           7.4124706
 Standard basis: 6-31G (6D, 7F)
    43 basis functions,    98 primitive gaussians,    43 cartesian basis functions
    13 alpha electrons       13 beta electrons
       nuclear repulsion energy        82.5855941814 Hartrees.
 NAtoms=   11 NActive=   11 NUniq=   11 SFac= 1.00D+00 NAtFMM=   60 NAOKFM=F Big=F
 Integral buffers will be    131072 words long.
 Raffenetti 1 integral format.
 Two-electron integral symmetry is turned off.
 One-electron integrals computed using PRISM.
 NBasis=    43 RedAO= T EigKep=  7.40D-03  NBF=    43
 NBsUse=    43 1.00D-06 EigRej= -1.00D+00 NBFU=    43
 Initial guess from the checkpoint file:  "propane.chk"
 B after Tr=    -0.044465   -0.024725   -0.002832
         Rot=    0.999988   -0.000018   -0.000129    0.004835 Ang=  -0.55 deg.
 ExpMin= 1.61D-01 ExpMax= 3.05D+03 ExpMxC= 4.57D+02 IAcc=2 IRadAn=         4 AccDes= 0.00D+00
 Harris functional with IExCor=  205 and IRadAn=       4 diagonalized for initial guess.
 HarFok:  IExCor=  205 AccDes= 0.00D+00 IRadAn=         4 IDoV= 1 UseB2=F ITyADJ=14
 ICtDFT=  3500011 ScaDFX=  1.000000  1.000000  1.000000  1.000000
 FoFCou: FMM=F IPFlag=           0 FMFlag=      100000 FMFlg1=           0
         NFxFlg=           0 DoJE=T BraDBF=F KetDBF=T FulRan=T
         wScrn=  0.000000 ICntrl=       500 IOpCl=  0 I1Cent=   200000004 NGrid=           0
         NMat0=    1 NMatS0=      1 NMatT0=    0 NMatD0=    1 NMtDS0=    0 NMtDT0=    0
 Symmetry not used in FoFCou.
 Keep R1 ints in memory in canonical form, NReq=1277969.
 Requested convergence on RMS density matrix=1.00D-08 within 128 cycles.
 Requested convergence on MAX density matrix=1.00D-06.
 Requested convergence on             energy=1.00D-06.
 No special actions if energy rises.
 SCF Done:  E(RHF) =  -118.214714013     A.U. after    9 cycles
            NFock=  9  Conv=0.29D-08     -V/T= 1.9981
 Calling FoFJK, ICntrl=      2127 FMM=F ISym2X=0 I1Cent= 0 IOpClX= 0 NMat=1 NMatS=1 NMatT=0.
 -------------------------------------------------------------------
 Center     Atomic                   Forces (Hartrees/Bohr)
 Number     Number              X              Y              Z
 -------------------------------------------------------------------
      1        6           0.000931834   -0.000167977   -0.000270921
      2        6           0.000384420    0.000371628   -0.001225133
      3        1           0.000098330    0.000093112    0.000026052
      4        1          -0.000037998    0.000047841   -0.000087952
      5        1          -0.000131121    0.000040681    0.000051648
      6        6          -0.000447810    0.000288839    0.001625488
      7        1           0.000079473   -0.001265426    0.000028981
      8        1          -0.001077648    0.000581712   -0.000200073
      9        1          -0.001824416    0.000194518   -0.000111387
     10        1           0.001213674    0.001580788   -0.000095984
     11        1           0.000811262   -0.001765717    0.000259283
 -------------------------------------------------------------------
 Cartesian Forces:  Max     0.001824416 RMS     0.000780173

 GradGradGradGradGradGradGradGradGradGradGradGradGradGradGradGradGradGrad
 Berny optimization.
 Using GEDIIS/GDIIS optimizer.
 FormGI is forming the generalized inverse of G from B-inverse, IUseBI=4.
 Internal  Forces:  Max     0.001712988 RMS     0.000605238
 Search for a local minimum.
 Step number   3 out of a maximum of   56
 All quantities printed in internal units (Hartrees-Bohrs-Radians)
 Mixed Optimization -- En-DIIS/RFO-DIIS
 Swapping is turned off.
 Update second derivatives using D2CorX and points    2    3
 DE= -1.59D-03 DEPred=-1.13D-03 R= 1.40D+00
 TightC=F SS=  1.41D+00  RLast= 6.25D-01 DXNew= 8.4853D-01 1.8761D+00
 Trust test= 1.40D+00 RLast= 6.25D-01 DXMaxT set to 8.49D-01
 ITU=  1  1  0
     Eigenvalues ---    0.00034   0.00322   0.03422   0.04740   0.05356
     Eigenvalues ---    0.05389   0.05443   0.05510   0.08322   0.12234
     Eigenvalues ---    0.15965   0.16000   0.16000   0.16000   0.16040
     Eigenvalues ---    0.17438   0.21924   0.27579   0.28869   0.30967
     Eigenvalues ---    0.31223   0.34683   0.34771   0.35054   0.35130
     Eigenvalues ---    0.35406   0.35515
 En-DIIS/RFO-DIIS/Sim-DIIS IScMMF=       -3 using points:     3    2
 RFO step:  Lambda=-2.14212664D-03.
 DidBck=F Rises=F RFO-DIIS coefs:    3.00000   -2.00000
 Iteration  1 RMS(Cart)=  0.09365359 RMS(Int)=  0.20526352
 Iteration  2 RMS(Cart)=  0.08729630 RMS(Int)=  0.11681556
 Iteration  3 RMS(Cart)=  0.08720170 RMS(Int)=  0.02880390
 Iteration  4 RMS(Cart)=  0.02834857 RMS(Int)=  0.00063529
 Iteration  5 RMS(Cart)=  0.00065455 RMS(Int)=  0.00004506
 Iteration  6 RMS(Cart)=  0.00000028 RMS(Int)=  0.00004506
 Variable       Old X    -DE/DX   Delta X   Delta X   Delta X     New X
                                 (Linear)    (Quad)   (Total)
    R1        2.89512  -0.00017  -0.00177  -0.00169  -0.00346   2.89166
    R2        2.05110   0.00012   0.00071   0.00017   0.00088   2.05197
    R3        2.05034   0.00008  -0.00061   0.00066   0.00005   2.05039
    R4        2.04937   0.00006   0.00053   0.00018   0.00071   2.05008
    R5        2.90527  -0.00171  -0.01879  -0.00743  -0.02623   2.87905
    R6        2.05130   0.00051   0.00135   0.00252   0.00387   2.05516
    R7        2.05096   0.00041   0.00056   0.00225   0.00281   2.05377
    R8        2.04752   0.00135   0.00487   0.00064   0.00551   2.05303
    R9        2.04630   0.00148   0.00616  -0.00005   0.00611   2.05241
   R10        2.04546   0.00143   0.00590  -0.00023   0.00568   2.05114
    A1        1.93761   0.00006   0.00283  -0.00067   0.00215   1.93976
    A2        1.93640  -0.00003   0.00875  -0.00661   0.00213   1.93853
    A3        1.94275   0.00007  -0.00713   0.00588  -0.00125   1.94150
    A4        1.88017  -0.00002  -0.00132   0.00032  -0.00101   1.87916
    A5        1.88112  -0.00003  -0.00255   0.00186  -0.00069   1.88043
    A6        1.88325  -0.00004  -0.00079  -0.00072  -0.00149   1.88175
    A7        1.97022  -0.00037  -0.00105  -0.00401  -0.00507   1.96515
    A8        1.90338   0.00024   0.00157   0.00418   0.00569   1.90908
    A9        1.90887   0.00022   0.00380   0.00282   0.00658   1.91545
   A10        1.90922  -0.00004  -0.00706   0.00070  -0.00634   1.90287
   A11        1.91562  -0.00006  -0.00158  -0.00585  -0.00742   1.90820
   A12        1.85280   0.00002   0.00472   0.00264   0.00729   1.86008
   A13        1.94085  -0.00049  -0.01349   0.00520  -0.00839   1.93246
   A14        1.94381  -0.00067  -0.00935  -0.00661  -0.01608   1.92773
   A15        1.94816  -0.00049  -0.01545   0.00321  -0.01236   1.93580
   A16        1.87495   0.00058   0.01302  -0.00082   0.01210   1.88705
   A17        1.87530   0.00057   0.01260   0.00154   0.01406   1.88935
   A18        1.87722   0.00060   0.01553  -0.00263   0.01275   1.88998
    D1       -0.99475  -0.00005  -0.06961   0.01686  -0.05275  -1.04750
    D2        1.13119  -0.00017  -0.07820   0.01805  -0.06019   1.07100
    D3       -3.13281   0.00011  -0.06961   0.02508  -0.04450   3.10587
    D4        1.09541  -0.00006  -0.06365   0.01245  -0.05119   1.04422
    D5       -3.06184  -0.00018  -0.07224   0.01363  -0.05862  -3.12046
    D6       -1.04265   0.00010  -0.06365   0.02067  -0.04294  -1.08560
    D7       -3.09032  -0.00009  -0.06350   0.01102  -0.05249   3.14038
    D8       -0.96439  -0.00021  -0.07209   0.01221  -0.05992  -1.02431
    D9        1.05480   0.00007  -0.06350   0.01924  -0.04424   1.01056
   D10       -0.67819  -0.00070  -0.41485  -0.24470  -0.65955  -1.33774
   D11        1.41247  -0.00073  -0.41379  -0.24668  -0.66048   0.75199
   D12       -2.77221  -0.00076  -0.41106  -0.25238  -0.66342   2.84755
   D13       -2.80082  -0.00073  -0.41109  -0.24784  -0.65894   2.82342
   D14       -0.71017  -0.00077  -0.41003  -0.24982  -0.65987  -1.37004
   D15        1.38834  -0.00080  -0.40730  -0.25551  -0.66281   0.72552
   D16        1.45610  -0.00071  -0.41183  -0.24810  -0.65992   0.79618
   D17       -2.73643  -0.00074  -0.41077  -0.25007  -0.66085   2.88590
   D18       -0.63793  -0.00077  -0.40804  -0.25577  -0.66380  -1.30172
         Item               Value     Threshold  Converged?
 Maximum Force            0.001713     0.000450     NO 
 RMS     Force            0.000605     0.000300     NO 
 Maximum Displacement     0.938338     0.001800     NO 
 RMS     Displacement     0.287558     0.001200     NO 
 Predicted change in Energy=-3.880870D-03
 GradGradGradGradGradGradGradGradGradGradGradGradGradGradGradGradGradGrad

                          Input orientation:                          
 ---------------------------------------------------------------------
 Center     Atomic      Atomic             Coordinates (Angstroms)
 Number     Number       Type             X           Y           Z
 ---------------------------------------------------------------------
      1          6           0       -1.400683    3.330946    0.801826
      2          6           0       -1.375512    1.854541    0.400450
      3          1           0       -0.489935    3.835962    0.494284
      4          1           0       -2.235591    3.846785    0.339109
      5          1           0       -1.494829    3.444479    1.876607
      6          6           0       -1.245619    1.659322   -1.104923
      7          1           0       -0.542735    1.360156    0.895244
      8          1           0       -2.279746    1.363453    0.750223
      9          1           0       -2.193612    1.849352   -1.600408
     10          1           0       -0.507636    2.343164   -1.513984
     11          1           0       -0.936989    0.645359   -1.338913
 ---------------------------------------------------------------------
                    Distance matrix (angstroms):
                    1          2          3          4          5
     1  C    0.000000
     2  C    1.530199   0.000000
     3  H    1.085857   2.172345   0.000000
     4  H    1.085020   2.170837   1.752572   0.000000
     5  H    1.084854   2.172828   1.753251   1.753420   0.000000
     6  C    2.540485   1.523526   2.804689   2.801832   3.484023
     7  H    2.151469   1.087546   2.508620   3.059146   2.492782
     8  H    2.155561   1.086806   3.063042   2.517519   2.493091
     9  H    2.931652   2.161653   3.352143   2.784461   3.888748
    10  H    2.671371   2.158013   2.502379   2.946295   3.699129
    11  H    3.465567   2.163286   3.706807   3.840736   4.299515
                    6          7          8          9         10
     6  C    0.000000
     7  H    2.141079   0.000000
     8  H    2.144417   1.743058   0.000000
     9  H    1.086419   3.031994   2.401871   0.000000
    10  H    1.086089   2.602291   3.037572   1.758929   0.000000
    11  H    1.085415   2.378619   2.585178   1.759852   1.759982
                   11
    11  H    0.000000
 Symmetry turned off by external request.
 Stoichiometry    C3H8
 Framework group  C1[X(C3H8)]
 Deg. of freedom    27
 Full point group                 C1      NOp   1
 Rotational constants (GHZ):          29.7320468           8.4725318           7.5014217
 Standard basis: 6-31G (6D, 7F)
    43 basis functions,    98 primitive gaussians,    43 cartesian basis functions
    13 alpha electrons       13 beta electrons
       nuclear repulsion energy        82.8354952212 Hartrees.
 NAtoms=   11 NActive=   11 NUniq=   11 SFac= 1.00D+00 NAtFMM=   60 NAOKFM=F Big=F
 Integral buffers will be    131072 words long.
 Raffenetti 1 integral format.
 Two-electron integral symmetry is turned off.
 One-electron integrals computed using PRISM.
 NBasis=    43 RedAO= T EigKep=  7.25D-03  NBF=    43
 NBsUse=    43 1.00D-06 EigRej= -1.00D+00 NBFU=    43
 Initial guess from the checkpoint file:  "propane.chk"
 B after Tr=    -0.170491   -0.091417   -0.004460
         Rot=    0.999827   -0.000850    0.001176    0.018552 Ang=  -2.13 deg.
 ExpMin= 1.61D-01 ExpMax= 3.05D+03 ExpMxC= 4.57D+02 IAcc=2 IRadAn=         4 AccDes= 0.00D+00
 Harris functional with IExCor=  205 and IRadAn=       4 diagonalized for initial guess.
 HarFok:  IExCor=  205 AccDes= 0.00D+00 IRadAn=         4 IDoV= 1 UseB2=F ITyADJ=14
 ICtDFT=  3500011 ScaDFX=  1.000000  1.000000  1.000000  1.000000
 FoFCou: FMM=F IPFlag=           0 FMFlag=      100000 FMFlg1=           0
         NFxFlg=           0 DoJE=T BraDBF=F KetDBF=T FulRan=T
         wScrn=  0.000000 ICntrl=       500 IOpCl=  0 I1Cent=   200000004 NGrid=           0
         NMat0=    1 NMatS0=      1 NMatT0=    0 NMatD0=    1 NMtDS0=    0 NMtDT0=    0
 Symmetry not used in FoFCou.
 Keep R1 ints in memory in canonical form, NReq=1278011.
 Requested convergence on RMS density matrix=1.00D-08 within 128 cycles.
 Requested convergence on MAX density matrix=1.00D-06.
 Requested convergence on             energy=1.00D-06.
 No special actions if energy rises.
 SCF Done:  E(RHF) =  -118.215083587     A.U. after   11 cycles
            NFock= 11  Conv=0.30D-08     -V/T= 1.9980
 Calling FoFJK, ICntrl=      2127 FMM=F ISym2X=0 I1Cent= 0 IOpClX= 0 NMat=1 NMatS=1 NMatT=0.
 -------------------------------------------------------------------
 Center     Atomic                   Forces (Hartrees/Bohr)
 Number     Number              X              Y              Z
 -------------------------------------------------------------------
      1        6          -0.001296366    0.000386121    0.001875945
      2        6           0.002025717   -0.000371069    0.004429139
      3        1          -0.000224557   -0.000738523   -0.000053065
      4        1          -0.000307790    0.000236520   -0.000176652
      5        1          -0.000235510    0.000345728   -0.000161345
      6        6          -0.000767822   -0.000503787   -0.003547191
      7        1          -0.000912649    0.001226757    0.001008972
      8        1           0.001040187   -0.000005124    0.001093049
      9        1           0.001978126    0.000492218   -0.001273434
     10        1          -0.000003061   -0.002053320   -0.001416264
     11        1          -0.001296275    0.000984479   -0.001779154
 -------------------------------------------------------------------
 Cartesian Forces:  Max     0.004429139 RMS     0.001425538

 GradGradGradGradGradGradGradGradGradGradGradGradGradGradGradGradGradGrad
 Berny optimization.
 Using GEDIIS/GDIIS optimizer.
 FormGI is forming the generalized inverse of G from B-inverse, IUseBI=4.
 Internal  Forces:  Max     0.008051381 RMS     0.001518946
 Search for a local minimum.
 Step number   4 out of a maximum of   56
 All quantities printed in internal units (Hartrees-Bohrs-Radians)
 Mixed Optimization -- RFO/linear search
 Update second derivatives using D2CorX and points    3    4
 DE= -3.70D-04 DEPred=-3.88D-03 R= 9.52D-02
 Trust test= 9.52D-02 RLast= 1.99D+00 DXMaxT set to 4.24D-01
 ITU= -1  1  1  0
 Use linear search instead of GDIIS.
     Eigenvalues ---    0.00211   0.00325   0.03476   0.04771   0.05438
     Eigenvalues ---    0.05458   0.05515   0.05524   0.08308   0.12189
     Eigenvalues ---    0.15977   0.16000   0.16000   0.16007   0.16071
     Eigenvalues ---    0.17619   0.21943   0.28295   0.28868   0.30967
     Eigenvalues ---    0.31223   0.34680   0.34771   0.34989   0.35132
     Eigenvalues ---    0.35410   0.35513
 RFO step:  Lambda=-1.25644599D-04 EMin= 2.11308603D-03
 Quartic linear search produced a step of -0.43920.
 Iteration  1 RMS(Cart)=  0.08727492 RMS(Int)=  0.03248722
 Iteration  2 RMS(Cart)=  0.03252913 RMS(Int)=  0.00083416
 Iteration  3 RMS(Cart)=  0.00086575 RMS(Int)=  0.00001572
 Iteration  4 RMS(Cart)=  0.00000048 RMS(Int)=  0.00001571
 Variable       Old X    -DE/DX   Delta X   Delta X   Delta X     New X
                                 (Linear)    (Quad)   (Total)
    R1        2.89166   0.00065   0.00152   0.00100   0.00252   2.89417
    R2        2.05197  -0.00052  -0.00038  -0.00063  -0.00101   2.05096
    R3        2.05039   0.00042  -0.00002   0.00079   0.00077   2.05116
    R4        2.05008  -0.00010  -0.00031  -0.00008  -0.00039   2.04969
    R5        2.87905   0.00805   0.01152   0.01285   0.02437   2.90342
    R6        2.05516  -0.00080  -0.00170  -0.00052  -0.00222   2.05295
    R7        2.05377  -0.00051  -0.00123  -0.00022  -0.00145   2.05232
    R8        2.05303  -0.00106  -0.00242   0.00082  -0.00161   2.05143
    R9        2.05241  -0.00076  -0.00268   0.00166  -0.00102   2.05139
   R10        2.05114  -0.00090  -0.00249   0.00131  -0.00118   2.04996
    A1        1.93976  -0.00093  -0.00094  -0.00321  -0.00415   1.93560
    A2        1.93853   0.00008  -0.00094   0.00020  -0.00074   1.93779
    A3        1.94150   0.00067   0.00055   0.00279   0.00334   1.94484
    A4        1.87916   0.00030   0.00044   0.00014   0.00058   1.87974
    A5        1.88043   0.00018   0.00030   0.00081   0.00112   1.88155
    A6        1.88175  -0.00029   0.00066  -0.00072  -0.00007   1.88169
    A7        1.96515   0.00102   0.00222   0.00274   0.00495   1.97010
    A8        1.90908  -0.00060  -0.00250   0.00108  -0.00150   1.90758
    A9        1.91545  -0.00122  -0.00289  -0.00841  -0.01129   1.90416
   A10        1.90287   0.00073   0.00279   0.00843   0.01119   1.91407
   A11        1.90820   0.00025   0.00326  -0.00008   0.00319   1.91139
   A12        1.86008  -0.00024  -0.00320  -0.00403  -0.00725   1.85283
   A13        1.93246   0.00177   0.00369   0.00415   0.00782   1.94028
   A14        1.92773   0.00209   0.00706   0.00503   0.01208   1.93981
   A15        1.93580   0.00193   0.00543   0.00477   0.01018   1.94598
   A16        1.88705  -0.00197  -0.00531  -0.00474  -0.01007   1.87698
   A17        1.88935  -0.00196  -0.00617  -0.00457  -0.01076   1.87859
   A18        1.88998  -0.00211  -0.00560  -0.00526  -0.01088   1.87910
    D1       -1.04750  -0.00033   0.02317  -0.02920  -0.00603  -1.05353
    D2        1.07100   0.00086   0.02643  -0.01590   0.01052   1.08153
    D3        3.10587  -0.00048   0.01955  -0.02496  -0.00540   3.10047
    D4        1.04422  -0.00051   0.02248  -0.03103  -0.00855   1.03567
    D5       -3.12046   0.00068   0.02575  -0.01773   0.00801  -3.11246
    D6       -1.08560  -0.00066   0.01886  -0.02679  -0.00792  -1.09351
    D7        3.14038  -0.00038   0.02305  -0.02994  -0.00689   3.13349
    D8       -1.02431   0.00081   0.02632  -0.01664   0.00967  -1.01464
    D9        1.01056  -0.00053   0.01943  -0.02570  -0.00626   1.00430
   D10       -1.33774   0.00106   0.28967  -0.01278   0.27691  -1.06082
   D11        0.75199   0.00110   0.29008  -0.01275   0.27735   1.02934
   D12        2.84755   0.00108   0.29137  -0.01293   0.27846   3.12601
   D13        2.82342   0.00064   0.28941  -0.02187   0.26752   3.09094
   D14       -1.37004   0.00067   0.28981  -0.02184   0.26796  -1.10208
   D15        0.72552   0.00066   0.29111  -0.02202   0.26907   0.99459
   D16        0.79618   0.00038   0.28984  -0.02172   0.26811   1.06429
   D17        2.88590   0.00041   0.29025  -0.02169   0.26855  -3.12873
   D18       -1.30172   0.00040   0.29154  -0.02188   0.26966  -1.03206
         Item               Value     Threshold  Converged?
 Maximum Force            0.008051     0.000450     NO 
 RMS     Force            0.001519     0.000300     NO 
 Maximum Displacement     0.391769     0.001800     NO 
 RMS     Displacement     0.118311     0.001200     NO 
 Predicted change in Energy=-1.192987D-03
 GradGradGradGradGradGradGradGradGradGradGradGradGradGradGradGradGradGrad

                          Input orientation:                          
 ---------------------------------------------------------------------
 Center     Atomic      Atomic             Coordinates (Angstroms)
 Number     Number       Type             X           Y           Z
 ---------------------------------------------------------------------
      1          6           0       -1.440357    3.332376    0.807214
      2          6           0       -1.334390    1.857612    0.407928
      3          1           0       -0.567828    3.886706    0.476563
      4          1           0       -2.314382    3.795139    0.359903
      5          1           0       -1.518119    3.447094    1.882971
      6          6           0       -1.233916    1.655997   -1.111891
      7          1           0       -0.468900    1.415542    0.893424
      8          1           0       -2.200045    1.323364    0.788325
      9          1           0       -2.112361    2.044382   -1.617807
     10          1           0       -0.368287    2.169496   -1.518609
     11          1           0       -1.144304    0.605812   -1.368508
 ---------------------------------------------------------------------
                    Distance matrix (angstroms):
                    1          2          3          4          5
     1  C    0.000000
     2  C    1.531531   0.000000
     3  H    1.085320   2.170150   0.000000
     4  H    1.085429   2.171797   1.752839   0.000000
     5  H    1.084647   2.176227   1.753367   1.753541   0.000000
     6  C    2.556527   1.536423   2.818320   2.812386   3.501143
     7  H    2.150678   1.086373   2.508030   3.058256   2.491440
     8  H    2.147932   1.086039   3.054841   2.511233   2.484654
     9  H    2.826879   2.178009   3.188436   2.649018   3.817875
    10  H    2.812665   2.177654   2.639951   3.155758   3.811184
    11  H    3.500795   2.181482   3.808002   3.811599   4.334136
                    6          7          8          9         10
     6  C    0.000000
     7  H    2.159712   0.000000
     8  H    2.157515   1.736781   0.000000
     9  H    1.085569   3.066379   2.513370   0.000000
    10  H    1.085548   2.529125   3.064837   1.751367   0.000000
    11  H    1.084790   2.495630   2.506272   1.751789   1.752095
                   11
    11  H    0.000000
 Symmetry turned off by external request.
 Stoichiometry    C3H8
 Framework group  C1[X(C3H8)]
 Deg. of freedom    27
 Full point group                 C1      NOp   1
 Rotational constants (GHZ):          29.7144425           8.3751941           7.4186816
 Standard basis: 6-31G (6D, 7F)
    43 basis functions,    98 primitive gaussians,    43 cartesian basis functions
    13 alpha electrons       13 beta electrons
       nuclear repulsion energy        82.5722923051 Hartrees.
 NAtoms=   11 NActive=   11 NUniq=   11 SFac= 1.00D+00 NAtFMM=   60 NAOKFM=F Big=F
 Integral buffers will be    131072 words long.
 Raffenetti 1 integral format.
 Two-electron integral symmetry is turned off.
 One-electron integrals computed using PRISM.
 NBasis=    43 RedAO= T EigKep=  7.52D-03  NBF=    43
 NBsUse=    43 1.00D-06 EigRej= -1.00D+00 NBFU=    43
 Initial guess from the checkpoint file:  "propane.chk"
 B after Tr=     0.066472    0.036975    0.000135
         Rot=    0.999974    0.000269   -0.000846   -0.007139 Ang=   0.82 deg.
 ExpMin= 1.61D-01 ExpMax= 3.05D+03 ExpMxC= 4.57D+02 IAcc=2 IRadAn=         4 AccDes= 0.00D+00
 Harris functional with IExCor=  205 and IRadAn=       4 diagonalized for initial guess.
 HarFok:  IExCor=  205 AccDes= 0.00D+00 IRadAn=         4 IDoV= 1 UseB2=F ITyADJ=14
 ICtDFT=  3500011 ScaDFX=  1.000000  1.000000  1.000000  1.000000
 FoFCou: FMM=F IPFlag=           0 FMFlag=      100000 FMFlg1=           0
         NFxFlg=           0 DoJE=T BraDBF=F KetDBF=T FulRan=T
         wScrn=  0.000000 ICntrl=       500 IOpCl=  0 I1Cent=   200000004 NGrid=           0
         NMat0=    1 NMatS0=      1 NMatT0=    0 NMatD0=    1 NMtDS0=    0 NMtDT0=    0
 Symmetry not used in FoFCou.
 Keep R1 ints in memory in canonical form, NReq=1278011.
 Requested convergence on RMS density matrix=1.00D-08 within 128 cycles.
 Requested convergence on MAX density matrix=1.00D-06.
 Requested convergence on             energy=1.00D-06.
 No special actions if energy rises.
 SCF Done:  E(RHF) =  -118.216135777     A.U. after    9 cycles
            NFock=  9  Conv=0.41D-08     -V/T= 1.9983
 Calling FoFJK, ICntrl=      2127 FMM=F ISym2X=0 I1Cent= 0 IOpClX= 0 NMat=1 NMatS=1 NMatT=0.
 -------------------------------------------------------------------
 Center     Atomic                   Forces (Hartrees/Bohr)
 Number     Number              X              Y              Z
 -------------------------------------------------------------------
      1        6           0.000396761    0.000309949   -0.000905848
      2        6          -0.000457087   -0.000135390   -0.001412691
      3        1          -0.000035710    0.000236417    0.000040617
      4        1           0.000012197   -0.000044060    0.000044695
      5        1           0.000021384   -0.000245907   -0.000093046
      6        6           0.000053328    0.000270563    0.001780213
      7        1           0.000344565   -0.000070595   -0.000772859
      8        1          -0.000274508   -0.000620936   -0.000598058
      9        1          -0.000126251    0.000220651    0.000684237
     10        1           0.000125581    0.000078779    0.000592127
     11        1          -0.000060262    0.000000527    0.000640614
 -------------------------------------------------------------------
 Cartesian Forces:  Max     0.001780213 RMS     0.000537495

 GradGradGradGradGradGradGradGradGradGradGradGradGradGradGradGradGradGrad
 Berny optimization.
 Using GEDIIS/GDIIS optimizer.
 FormGI is forming the generalized inverse of G from B-inverse, IUseBI=4.
 Internal  Forces:  Max     0.003732600 RMS     0.000652032
 Search for a local minimum.
 Step number   5 out of a maximum of   56
 All quantities printed in internal units (Hartrees-Bohrs-Radians)
 Mixed Optimization -- En-DIIS/RFO-DIIS
 Update second derivatives using D2CorX and points    4    5
 DE= -1.05D-03 DEPred=-1.19D-03 R= 8.82D-01
 TightC=F SS=  1.41D+00  RLast= 8.16D-01 DXNew= 7.1352D-01 2.4479D+00
 Trust test= 8.82D-01 RLast= 8.16D-01 DXMaxT set to 7.14D-01
 ITU=  1 -1  1  1  0
 Use linear search instead of GDIIS.
     Eigenvalues ---    0.00206   0.00326   0.03453   0.04784   0.05384
     Eigenvalues ---    0.05406   0.05433   0.05516   0.08576   0.12238
     Eigenvalues ---    0.15972   0.16000   0.16000   0.16013   0.16113
     Eigenvalues ---    0.17974   0.21995   0.28862   0.30891   0.30975
     Eigenvalues ---    0.31223   0.34688   0.34776   0.35062   0.35143
     Eigenvalues ---    0.35489   0.35989
 RFO step:  Lambda=-9.60250208D-05 EMin= 2.06420478D-03
 Quartic linear search produced a step of -0.03198.
 Iteration  1 RMS(Cart)=  0.01569785 RMS(Int)=  0.00016085
 Iteration  2 RMS(Cart)=  0.00016616 RMS(Int)=  0.00000848
 Iteration  3 RMS(Cart)=  0.00000002 RMS(Int)=  0.00000848
 Variable       Old X    -DE/DX   Delta X   Delta X   Delta X     New X
                                 (Linear)    (Quad)   (Total)
    R1        2.89417  -0.00002  -0.00008   0.00008  -0.00000   2.89417
    R2        2.05096   0.00008   0.00003   0.00012   0.00015   2.05111
    R3        2.05116  -0.00005  -0.00002  -0.00009  -0.00011   2.05105
    R4        2.04969  -0.00012   0.00001  -0.00036  -0.00035   2.04933
    R5        2.90342  -0.00373  -0.00078  -0.01089  -0.01166   2.89175
    R6        2.05295  -0.00004   0.00007  -0.00034  -0.00027   2.05268
    R7        2.05232   0.00031   0.00005   0.00073   0.00077   2.05309
    R8        2.05143  -0.00014   0.00005  -0.00123  -0.00118   2.05025
    R9        2.05139  -0.00008   0.00003  -0.00117  -0.00114   2.05025
   R10        2.04996  -0.00016   0.00004  -0.00138  -0.00134   2.04861
    A1        1.93560   0.00041   0.00013   0.00259   0.00273   1.93833
    A2        1.93779  -0.00002   0.00002  -0.00060  -0.00058   1.93721
    A3        1.94484  -0.00041  -0.00011  -0.00240  -0.00251   1.94233
    A4        1.87974  -0.00012  -0.00002   0.00016   0.00014   1.87988
    A5        1.88155   0.00001  -0.00004   0.00033   0.00030   1.88185
    A6        1.88169   0.00013   0.00000  -0.00005  -0.00005   1.88164
    A7        1.97010  -0.00073  -0.00016  -0.00394  -0.00410   1.96600
    A8        1.90758   0.00051   0.00005   0.00276   0.00278   1.91036
    A9        1.90416   0.00074   0.00036   0.00698   0.00733   1.91149
   A10        1.91407  -0.00029  -0.00036  -0.00572  -0.00608   1.90798
   A11        1.91139  -0.00024  -0.00010  -0.00315  -0.00324   1.90815
   A12        1.85283   0.00008   0.00023   0.00362   0.00382   1.85665
   A13        1.94028  -0.00073  -0.00025  -0.00315  -0.00340   1.93688
   A14        1.93981  -0.00055  -0.00039  -0.00229  -0.00268   1.93713
   A15        1.94598  -0.00058  -0.00033  -0.00222  -0.00255   1.94343
   A16        1.87698   0.00067   0.00032   0.00282   0.00314   1.88012
   A17        1.87859   0.00070   0.00034   0.00305   0.00339   1.88198
   A18        1.87910   0.00060   0.00035   0.00228   0.00263   1.88172
    D1       -1.05353   0.00006   0.00019   0.00975   0.00994  -1.04359
    D2        1.08153  -0.00044  -0.00034   0.00172   0.00137   1.08289
    D3        3.10047   0.00034   0.00017   0.01144   0.01163   3.11209
    D4        1.03567   0.00017   0.00027   0.01126   0.01154   1.04721
    D5       -3.11246  -0.00034  -0.00026   0.00323   0.00296  -3.10949
    D6       -1.09351   0.00044   0.00025   0.01296   0.01322  -1.08029
    D7        3.13349   0.00005   0.00022   0.00918   0.00940  -3.14030
    D8       -1.01464  -0.00046  -0.00031   0.00115   0.00083  -1.01381
    D9        1.00430   0.00032   0.00020   0.01087   0.01109   1.01539
   D10       -1.06082  -0.00007  -0.00886   0.03804   0.02919  -1.03163
   D11        1.02934  -0.00007  -0.00887   0.03798   0.02912   1.05846
   D12        3.12601  -0.00007  -0.00890   0.03781   0.02891  -3.12826
   D13        3.09094  -0.00001  -0.00856   0.04134   0.03278   3.12372
   D14       -1.10208  -0.00001  -0.00857   0.04128   0.03270  -1.06937
   D15        0.99459  -0.00001  -0.00860   0.04111   0.03250   1.02709
   D16        1.06429   0.00021  -0.00857   0.04204   0.03346   1.09775
   D17       -3.12873   0.00020  -0.00859   0.04198   0.03339  -3.09534
   D18       -1.03206   0.00020  -0.00862   0.04181   0.03319  -0.99888
         Item               Value     Threshold  Converged?
 Maximum Force            0.003733     0.000450     NO 
 RMS     Force            0.000652     0.000300     NO 
 Maximum Displacement     0.050335     0.001800     NO 
 RMS     Displacement     0.015700     0.001200     NO 
 Predicted change in Energy=-4.968116D-05
 GradGradGradGradGradGradGradGradGradGradGradGradGradGradGradGradGradGrad

                          Input orientation:                          
 ---------------------------------------------------------------------
 Center     Atomic      Atomic             Coordinates (Angstroms)
 Number     Number       Type             X           Y           Z
 ---------------------------------------------------------------------
      1          6           0       -1.444120    3.331634    0.802902
      2          6           0       -1.332757    1.856263    0.407347
      3          1           0       -0.579273    3.892778    0.463418
      4          1           0       -2.326136    3.786538    0.363433
      5          1           0       -1.512852    3.446617    1.879058
      6          6           0       -1.232046    1.658221   -1.106688
      7          1           0       -0.461525    1.418177    0.885814
      8          1           0       -2.194882    1.313235    0.784483
      9          1           0       -2.099491    2.071018   -1.610913
     10          1           0       -0.352146    2.151993   -1.505528
     11          1           0       -1.167660    0.607045   -1.363811
 ---------------------------------------------------------------------
                    Distance matrix (angstroms):
                    1          2          3          4          5
     1  C    0.000000
     2  C    1.531530   0.000000
     3  H    1.085400   2.172159   0.000000
     4  H    1.085368   2.171334   1.752945   0.000000
     5  H    1.084461   2.174303   1.753472   1.753310   0.000000
     6  C    2.547906   1.530250   2.807952   2.808562   3.491689
     7  H    2.152599   1.086231   2.513152   3.059214   2.491263
     8  H    2.153582   1.086448   3.060607   2.512317   2.492905
     9  H    2.800923   2.169648   3.151622   2.625342   3.796883
    10  H    2.812972   2.169826   2.637928   3.171969   3.805090
    11  H    3.492057   2.173661   3.805392   3.799291   4.324180
                    6          7          8          9         10
     6  C    0.000000
     7  H    2.149742   0.000000
     8  H    2.150023   1.739485   0.000000
     9  H    1.084944   3.056596   2.514212   0.000000
    10  H    1.084947   2.503791   3.056688   1.752392   0.000000
    11  H    1.084079   2.493467   2.483759   1.752879   1.752716
                   11
    11  H    0.000000
 Symmetry turned off by external request.
 Stoichiometry    C3H8
 Framework group  C1[X(C3H8)]
 Deg. of freedom    27
 Full point group                 C1      NOp   1
 Rotational constants (GHZ):          29.6954442           8.4267079           7.4593606
 Standard basis: 6-31G (6D, 7F)
    43 basis functions,    98 primitive gaussians,    43 cartesian basis functions
    13 alpha electrons       13 beta electrons
       nuclear repulsion energy        82.7037847575 Hartrees.
 NAtoms=   11 NActive=   11 NUniq=   11 SFac= 1.00D+00 NAtFMM=   60 NAOKFM=F Big=F
 Integral buffers will be    131072 words long.
 Raffenetti 1 integral format.
 Two-electron integral symmetry is turned off.
 One-electron integrals computed using PRISM.
 NBasis=    43 RedAO= T EigKep=  7.44D-03  NBF=    43
 NBsUse=    43 1.00D-06 EigRej= -1.00D+00 NBFU=    43
 Initial guess from the checkpoint file:  "propane.chk"
 B after Tr=     0.004245    0.002548    0.003271
         Rot=    1.000000    0.000230    0.000230   -0.000498 Ang=   0.07 deg.
 ExpMin= 1.61D-01 ExpMax= 3.05D+03 ExpMxC= 4.57D+02 IAcc=2 IRadAn=         4 AccDes= 0.00D+00
 Harris functional with IExCor=  205 and IRadAn=       4 diagonalized for initial guess.
 HarFok:  IExCor=  205 AccDes= 0.00D+00 IRadAn=         4 IDoV= 1 UseB2=F ITyADJ=14
 ICtDFT=  3500011 ScaDFX=  1.000000  1.000000  1.000000  1.000000
 FoFCou: FMM=F IPFlag=           0 FMFlag=      100000 FMFlg1=           0
         NFxFlg=           0 DoJE=T BraDBF=F KetDBF=T FulRan=T
         wScrn=  0.000000 ICntrl=       500 IOpCl=  0 I1Cent=   200000004 NGrid=           0
         NMat0=    1 NMatS0=      1 NMatT0=    0 NMatD0=    1 NMtDS0=    0 NMtDT0=    0
 Symmetry not used in FoFCou.
 Keep R1 ints in memory in canonical form, NReq=1278025.
 Requested convergence on RMS density matrix=1.00D-08 within 128 cycles.
 Requested convergence on MAX density matrix=1.00D-06.
 Requested convergence on             energy=1.00D-06.
 No special actions if energy rises.
 SCF Done:  E(RHF) =  -118.216168500     A.U. after    8 cycles
            NFock=  8  Conv=0.49D-08     -V/T= 1.9982
 Calling FoFJK, ICntrl=      2127 FMM=F ISym2X=0 I1Cent= 0 IOpClX= 0 NMat=1 NMatS=1 NMatT=0.
 -------------------------------------------------------------------
 Center     Atomic                   Forces (Hartrees/Bohr)
 Number     Number              X              Y              Z
 -------------------------------------------------------------------
      1        6          -0.000129193   -0.000280082    0.000307849
      2        6           0.000043675    0.000120978   -0.000011871
      3        1           0.000010396   -0.000127390   -0.000022310
      4        1           0.000011548   -0.000019378   -0.000013816
      5        1           0.000009040    0.000154844    0.000066270
      6        6           0.000038309   -0.000011059   -0.000311297
      7        1          -0.000019427   -0.000005473    0.000285145
      8        1           0.000026687    0.000266358    0.000249981
      9        1          -0.000240299    0.000036967   -0.000223956
     10        1           0.000190048    0.000176570   -0.000182138
     11        1           0.000059215   -0.000312336   -0.000143857
 -------------------------------------------------------------------
 Cartesian Forces:  Max     0.000312336 RMS     0.000165000

 GradGradGradGradGradGradGradGradGradGradGradGradGradGradGradGradGradGrad
 Berny optimization.
 Using GEDIIS/GDIIS optimizer.
 FormGI is forming the generalized inverse of G from B-inverse, IUseBI=4.
 Internal  Forces:  Max     0.000869451 RMS     0.000187520
 Search for a local minimum.
 Step number   6 out of a maximum of   56
 All quantities printed in internal units (Hartrees-Bohrs-Radians)
 Mixed Optimization -- En-DIIS/RFO-DIIS
 Swapping is turned off.
 Update second derivatives using D2CorX and points    5    6
 DE= -3.27D-05 DEPred=-4.97D-05 R= 6.59D-01
 TightC=F SS=  1.41D+00  RLast= 1.01D-01 DXNew= 1.2000D+00 3.0278D-01
 Trust test= 6.59D-01 RLast= 1.01D-01 DXMaxT set to 7.14D-01
 ITU=  1  1 -1  1  1  0
     Eigenvalues ---    0.00240   0.00327   0.03475   0.04819   0.05409
     Eigenvalues ---    0.05437   0.05464   0.05512   0.08979   0.12223
     Eigenvalues ---    0.15974   0.15994   0.16000   0.16008   0.16127
     Eigenvalues ---    0.18073   0.22098   0.28810   0.30965   0.31222
     Eigenvalues ---    0.33927   0.34677   0.34796   0.35048   0.35144
     Eigenvalues ---    0.35378   0.35712
 En-DIIS/RFO-DIIS/Sim-DIIS IScMMF=       -3 using points:     6    5
 RFO step:  Lambda=-1.07172624D-05.
 DidBck=T Rises=F RFO-DIIS coefs:    0.58038    0.41962
 Iteration  1 RMS(Cart)=  0.00632910 RMS(Int)=  0.00003027
 Iteration  2 RMS(Cart)=  0.00003127 RMS(Int)=  0.00000317
 Iteration  3 RMS(Cart)=  0.00000000 RMS(Int)=  0.00000317
 Variable       Old X    -DE/DX   Delta X   Delta X   Delta X     New X
                                 (Linear)    (Quad)   (Total)
    R1        2.89417  -0.00017   0.00000  -0.00046  -0.00046   2.89372
    R2        2.05111  -0.00005  -0.00006  -0.00004  -0.00010   2.05100
    R3        2.05105  -0.00001   0.00005  -0.00007  -0.00002   2.05103
    R4        2.04933   0.00008   0.00015   0.00003   0.00018   2.04951
    R5        2.89175   0.00087   0.00489  -0.00282   0.00208   2.89383
    R6        2.05268   0.00011   0.00011   0.00016   0.00027   2.05295
    R7        2.05309  -0.00007  -0.00032   0.00021  -0.00012   2.05297
    R8        2.05025   0.00031   0.00050   0.00032   0.00082   2.05106
    R9        2.05025   0.00030   0.00048   0.00035   0.00083   2.05108
   R10        2.04861   0.00034   0.00056   0.00035   0.00091   2.04952
    A1        1.93833  -0.00022  -0.00114  -0.00005  -0.00120   1.93713
    A2        1.93721  -0.00003   0.00024  -0.00031  -0.00006   1.93715
    A3        1.94233   0.00025   0.00105   0.00029   0.00134   1.94367
    A4        1.87988   0.00008  -0.00006   0.00005  -0.00001   1.87987
    A5        1.88185  -0.00002  -0.00013  -0.00002  -0.00015   1.88171
    A6        1.88164  -0.00006   0.00002   0.00005   0.00007   1.88171
    A7        1.96600   0.00023   0.00172  -0.00074   0.00098   1.96698
    A8        1.91036  -0.00018  -0.00117   0.00017  -0.00099   1.90937
    A9        1.91149  -0.00028  -0.00307   0.00097  -0.00210   1.90939
   A10        1.90798   0.00008   0.00255  -0.00115   0.00140   1.90939
   A11        1.90815   0.00014   0.00136  -0.00002   0.00134   1.90949
   A12        1.85665  -0.00001  -0.00160   0.00086  -0.00073   1.85592
   A13        1.93688   0.00010   0.00143  -0.00108   0.00035   1.93723
   A14        1.93713   0.00006   0.00112  -0.00096   0.00016   1.93729
   A15        1.94343   0.00006   0.00107  -0.00094   0.00013   1.94356
   A16        1.88012  -0.00009  -0.00132   0.00105  -0.00027   1.87985
   A17        1.88198  -0.00009  -0.00142   0.00111  -0.00031   1.88167
   A18        1.88172  -0.00006  -0.00110   0.00100  -0.00010   1.88163
    D1       -1.04359   0.00002  -0.00417   0.00301  -0.00116  -1.04476
    D2        1.08289   0.00015  -0.00057   0.00115   0.00058   1.08348
    D3        3.11209  -0.00011  -0.00488   0.00284  -0.00204   3.11005
    D4        1.04721  -0.00004  -0.00484   0.00283  -0.00201   1.04520
    D5       -3.10949   0.00009  -0.00124   0.00098  -0.00026  -3.10976
    D6       -1.08029  -0.00018  -0.00555   0.00266  -0.00289  -1.08318
    D7       -3.14030   0.00002  -0.00394   0.00287  -0.00107  -3.14137
    D8       -1.01381   0.00016  -0.00035   0.00102   0.00068  -1.01313
    D9        1.01539  -0.00011  -0.00465   0.00271  -0.00195   1.01344
   D10       -1.03163  -0.00001  -0.01225  -0.00153  -0.01379  -1.04542
   D11        1.05846  -0.00001  -0.01222  -0.00157  -0.01379   1.04467
   D12       -3.12826  -0.00000  -0.01213  -0.00158  -0.01371   3.14121
   D13        3.12372   0.00000  -0.01375  -0.00043  -0.01418   3.10954
   D14       -1.06937   0.00000  -0.01372  -0.00046  -0.01418  -1.08356
   D15        1.02709   0.00001  -0.01364  -0.00047  -0.01411   1.01299
   D16        1.09775  -0.00011  -0.01404  -0.00081  -0.01485   1.08290
   D17       -3.09534  -0.00011  -0.01401  -0.00084  -0.01485  -3.11019
   D18       -0.99888  -0.00010  -0.01393  -0.00085  -0.01478  -1.01365
         Item               Value     Threshold  Converged?
 Maximum Force            0.000869     0.000450     NO 
 RMS     Force            0.000188     0.000300     YES
 Maximum Displacement     0.020557     0.001800     NO 
 RMS     Displacement     0.006330     0.001200     NO 
 Predicted change in Energy=-5.368242D-06
 GradGradGradGradGradGradGradGradGradGradGradGradGradGradGradGradGradGrad

                          Input orientation:                          
 ---------------------------------------------------------------------
 Center     Atomic      Atomic             Coordinates (Angstroms)
[...]
 FoFCou: FMM=F IPFlag=           0 FMFlag=      100000 FMFlg1=           0
         NFxFlg=           0 DoJE=T BraDBF=F KetDBF=T FulRan=T
         wScrn=  0.000000 ICntrl=       500 IOpCl=  0 I1Cent=   200000004 NGrid=           0
         NMat0=    1 NMatS0=      1 NMatT0=    0 NMatD0=    1 NMtDS0=    0 NMtDT0=    0
 Symmetry not used in FoFCou.
 Keep R1 ints in memory in canonical form, NReq=1278039.
 Requested convergence on RMS density matrix=1.00D-08 within 128 cycles.
 Requested convergence on MAX density matrix=1.00D-06.
 Requested convergence on             energy=1.00D-06.
 No special actions if energy rises.
 SCF Done:  E(RHF) =  -118.216173721     A.U. after    7 cycles
            NFock=  7  Conv=0.71D-08     -V/T= 1.9982
 Calling FoFJK, ICntrl=      2127 FMM=F ISym2X=0 I1Cent= 0 IOpClX= 0 NMat=1 NMatS=1 NMatT=0.
 -------------------------------------------------------------------
 Center     Atomic                   Forces (Hartrees/Bohr)
 Number     Number              X              Y              Z
 -------------------------------------------------------------------
      1        6          -0.000009812    0.000013062   -0.000011675
      2        6           0.000010931   -0.000018914    0.000003578
      3        1           0.000008339    0.000022629    0.000004841
      4        1          -0.000003492    0.000018062    0.000006296
      5        1          -0.000000633   -0.000003695   -0.000011951
      6        6          -0.000005844   -0.000004008   -0.000004839
      7        1           0.000000156   -0.000017572    0.000010208
      8        1           0.000008226   -0.000015131   -0.000002262
      9        1           0.000007459   -0.000003008   -0.000003150
     10        1          -0.000010290   -0.000004733    0.000007792
     11        1          -0.000005040    0.000013306    0.000001162
 -------------------------------------------------------------------
 Cartesian Forces:  Max     0.000022629 RMS     0.000009983

 GradGradGradGradGradGradGradGradGradGradGradGradGradGradGradGradGradGrad
 Berny optimization.
 Using GEDIIS/GDIIS optimizer.
 FormGI is forming the generalized inverse of G from B-inverse, IUseBI=4.
 Internal  Forces:  Max     0.000045380 RMS     0.000011310
 Search for a local minimum.
 Step number   7 out of a maximum of   56
 All quantities printed in internal units (Hartrees-Bohrs-Radians)
 Mixed Optimization -- En-DIIS/RFO-DIIS
 Swapping is turned off.
 Update second derivatives using D2CorX and points    5    6    7
 DE= -5.22D-06 DEPred=-5.37D-06 R= 9.73D-01
 TightC=F SS=  1.41D+00  RLast= 4.33D-02 DXNew= 1.2000D+00 1.2985D-01
 Trust test= 9.73D-01 RLast= 4.33D-02 DXMaxT set to 7.14D-01
 ITU=  1  1  1 -1  1  1  0
     Eigenvalues ---    0.00241   0.00329   0.03471   0.04804   0.05407
     Eigenvalues ---    0.05434   0.05460   0.05531   0.09024   0.12242
     Eigenvalues ---    0.15947   0.15995   0.16001   0.16097   0.16193
     Eigenvalues ---    0.18091   0.22147   0.28917   0.30965   0.31222
     Eigenvalues ---    0.33968   0.34691   0.34839   0.34973   0.35204
     Eigenvalues ---    0.35383   0.35892
 En-DIIS/RFO-DIIS/Sim-DIIS IScMMF=       -3 using points:     7    6    5
 RFO step:  Lambda=-3.44635493D-08.
 DidBck=F Rises=F RFO-DIIS coefs:    0.91852    0.05373    0.02775
 Iteration  1 RMS(Cart)=  0.00016050 RMS(Int)=  0.00000017
 Iteration  2 RMS(Cart)=  0.00000002 RMS(Int)=  0.00000017
 Variable       Old X    -DE/DX   Delta X   Delta X   Delta X     New X
                                 (Linear)    (Quad)   (Total)
    R1        2.89372   0.00005   0.00004   0.00010   0.00014   2.89385
    R2        2.05100   0.00002   0.00000   0.00004   0.00004   2.05105
    R3        2.05103   0.00001   0.00000   0.00002   0.00002   2.05105
    R4        2.04951  -0.00001  -0.00000  -0.00003  -0.00003   2.04948
    R5        2.89383  -0.00000   0.00015  -0.00014   0.00001   2.89384
    R6        2.05295   0.00001  -0.00001   0.00005   0.00003   2.05298
    R7        2.05297   0.00000  -0.00001   0.00001  -0.00000   2.05297
    R8        2.05106  -0.00001  -0.00003   0.00002  -0.00001   2.05105
    R9        2.05108  -0.00001  -0.00004   0.00000  -0.00003   2.05105
   R10        2.04952  -0.00001  -0.00004   0.00000  -0.00003   2.04949
    A1        1.93713   0.00002   0.00002   0.00011   0.00014   1.93727
    A2        1.93715   0.00002   0.00002   0.00011   0.00014   1.93728
    A3        1.94367  -0.00001  -0.00004  -0.00006  -0.00010   1.94357
    A4        1.87987  -0.00002  -0.00000  -0.00004  -0.00004   1.87983
    A5        1.88171  -0.00001   0.00000  -0.00007  -0.00007   1.88163
    A6        1.88171  -0.00001  -0.00000  -0.00007  -0.00008   1.88163
    A7        1.96698  -0.00002   0.00003  -0.00007  -0.00003   1.96695
    A8        1.90937   0.00001   0.00000   0.00010   0.00010   1.90947
    A9        1.90939   0.00001  -0.00003   0.00009   0.00006   1.90945
   A10        1.90939   0.00001   0.00005   0.00001   0.00007   1.90945
   A11        1.90949  -0.00000  -0.00002  -0.00006  -0.00007   1.90941
   A12        1.85592  -0.00001  -0.00005  -0.00008  -0.00013   1.85579
   A13        1.93723   0.00001   0.00007  -0.00001   0.00006   1.93729
   A14        1.93729  -0.00001   0.00006  -0.00010  -0.00004   1.93725
   A15        1.94356   0.00000   0.00006  -0.00004   0.00002   1.94357
   A16        1.87985  -0.00000  -0.00007   0.00004  -0.00002   1.87983
   A17        1.88167  -0.00001  -0.00007   0.00004  -0.00003   1.88164
   A18        1.88163   0.00000  -0.00006   0.00007   0.00001   1.88163
    D1       -1.04476  -0.00001  -0.00018  -0.00010  -0.00028  -1.04504
    D2        1.08348  -0.00000  -0.00009  -0.00006  -0.00014   1.08333
    D3        3.11005  -0.00000  -0.00016  -0.00005  -0.00021   3.10985
    D4        1.04520   0.00000  -0.00016   0.00001  -0.00015   1.04504
    D5       -3.10976   0.00001  -0.00006   0.00005  -0.00001  -3.10977
    D6       -1.08318   0.00001  -0.00013   0.00006  -0.00007  -1.08325
    D7       -3.14137  -0.00000  -0.00017  -0.00005  -0.00022  -3.14159
    D8       -1.01313   0.00000  -0.00008  -0.00000  -0.00008  -1.01322
    D9        1.01344   0.00000  -0.00015   0.00000  -0.00014   1.01330
   D10       -1.04542   0.00000   0.00031   0.00002   0.00034  -1.04508
   D11        1.04467   0.00000   0.00032   0.00001   0.00032   1.04499
   D12        3.14121   0.00000   0.00031   0.00001   0.00032   3.14153
   D13        3.10954  -0.00000   0.00025  -0.00007   0.00018   3.10972
   D14       -1.08356  -0.00000   0.00025  -0.00008   0.00016  -1.08339
   D15        1.01299  -0.00000   0.00025  -0.00008   0.00016   1.01315
   D16        1.08290   0.00001   0.00028   0.00005   0.00033   1.08324
   D17       -3.11019   0.00001   0.00028   0.00004   0.00032  -3.10987
   D18       -1.01365   0.00001   0.00028   0.00004   0.00032  -1.01333
         Item               Value     Threshold  Converged?
 Maximum Force            0.000045     0.000450     YES
 RMS     Force            0.000011     0.000300     YES
 Maximum Displacement     0.000480     0.001800     YES
 RMS     Displacement     0.000160     0.001200     YES
 Predicted change in Energy=-1.714793D-08
 Optimization completed.
    -- Stationary point found.
                           ----------------------------
                           !   Optimized Parameters   !
                           ! (Angstroms and Degrees)  !
 --------------------------                            --------------------------
 ! Name  Definition              Value          Derivative Info.                !
 --------------------------------------------------------------------------------
 ! R1    R(1,2)                  1.5313         -DE/DX =    0.0                 !
 ! R2    R(1,3)                  1.0853         -DE/DX =    0.0                 !
 ! R3    R(1,4)                  1.0854         -DE/DX =    0.0                 !
 ! R4    R(1,5)                  1.0846         -DE/DX =    0.0                 !
 ! R5    R(2,6)                  1.5313         -DE/DX =    0.0                 !
 ! R6    R(2,7)                  1.0864         -DE/DX =    0.0                 !
 ! R7    R(2,8)                  1.0864         -DE/DX =    0.0                 !
 ! R8    R(6,9)                  1.0854         -DE/DX =    0.0                 !
 ! R9    R(6,10)                 1.0854         -DE/DX =    0.0                 !
 ! R10   R(6,11)                 1.0846         -DE/DX =    0.0                 !
 ! A1    A(2,1,3)              110.9895         -DE/DX =    0.0                 !
 ! A2    A(2,1,4)              110.9902         -DE/DX =    0.0                 !
 ! A3    A(2,1,5)              111.364          -DE/DX =    0.0                 !
 ! A4    A(3,1,4)              107.7087         -DE/DX =    0.0                 !
 ! A5    A(3,1,5)              107.8138         -DE/DX =    0.0                 !
 ! A6    A(4,1,5)              107.8139         -DE/DX =    0.0                 !
 ! A7    A(1,2,6)              112.6995         -DE/DX =    0.0                 !
 ! A8    A(1,2,7)              109.3989         -DE/DX =    0.0                 !
 ! A9    A(1,2,8)              109.4            -DE/DX =    0.0                 !
 ! A10   A(6,2,7)              109.3997         -DE/DX =    0.0                 !
 ! A11   A(6,2,8)              109.4055         -DE/DX =    0.0                 !
 ! A12   A(7,2,8)              106.3364         -DE/DX =    0.0                 !
 ! A13   A(2,6,9)              110.9951         -DE/DX =    0.0                 !
 ! A14   A(2,6,10)             110.9986         -DE/DX =    0.0                 !
 ! A15   A(2,6,11)             111.3576         -DE/DX =    0.0                 !
 ! A16   A(9,6,10)             107.7076         -DE/DX =    0.0                 !
 ! A17   A(9,6,11)             107.8117         -DE/DX =    0.0                 !
 ! A18   A(10,6,11)            107.8092         -DE/DX =    0.0                 !
 ! D1    D(3,1,2,6)            -59.8602         -DE/DX =    0.0                 !
 ! D2    D(3,1,2,7)             62.0786         -DE/DX =    0.0                 !
 ! D3    D(3,1,2,8)            178.1929         -DE/DX =    0.0                 !
 ! D4    D(4,1,2,6)             59.8853         -DE/DX =    0.0                 !
 ! D5    D(4,1,2,7)           -178.1759         -DE/DX =    0.0                 !
 ! D6    D(4,1,2,8)            -62.0616         -DE/DX =    0.0                 !
 ! D7    D(5,1,2,6)           -179.9871         -DE/DX =    0.0                 !
 ! D8    D(5,1,2,7)            -58.0483         -DE/DX =    0.0                 !
 ! D9    D(5,1,2,8)             58.0659         -DE/DX =    0.0                 !
 ! D10   D(1,2,6,9)            -59.8981         -DE/DX =    0.0                 !
 ! D11   D(1,2,6,10)            59.8552         -DE/DX =    0.0                 !
 ! D12   D(1,2,6,11)           179.9782         -DE/DX =    0.0                 !
 ! D13   D(7,2,6,9)            178.1636         -DE/DX =    0.0                 !
 ! D14   D(7,2,6,10)           -62.0831         -DE/DX =    0.0                 !
 ! D15   D(7,2,6,11)            58.0398         -DE/DX =    0.0                 !
 ! D16   D(8,2,6,9)             62.0458         -DE/DX =    0.0                 !
 ! D17   D(8,2,6,10)          -178.201          -DE/DX =    0.0                 !
 ! D18   D(8,2,6,11)           -58.078          -DE/DX =    0.0                 !
 --------------------------------------------------------------------------------
 GradGradGradGradGradGradGradGradGradGradGradGradGradGradGradGradGradGrad

                          Input orientation:                          
 ---------------------------------------------------------------------
 Center     Atomic      Atomic             Coordinates (Angstroms)
 Number     Number       Type             X           Y           Z
 ---------------------------------------------------------------------
      1          6           0       -1.442387    3.331488    0.803886
      2          6           0       -1.334297    1.856441    0.407154
      3          1           0       -0.574882    3.889482    0.466168
      4          1           0       -2.321831    3.789394    0.362406
      5          1           0       -1.512918    3.447056    1.879956
      6          6           0       -1.232623    1.657897   -1.107861
      7          1           0       -0.465216    1.416232    0.887906
      8          1           0       -2.198386    1.316960    0.784709
      9          1           0       -2.105253    2.060558   -1.612264
     10          1           0       -0.358314    2.161199   -1.508280
     11          1           0       -1.156782    0.606813   -1.364267
 ---------------------------------------------------------------------
                    Distance matrix (angstroms):
                    1          2          3          4          5
     1  C    0.000000
     2  C    1.531288   0.000000
     3  H    1.085345   2.171048   0.000000
     4  H    1.085359   2.171067   1.752887   0.000000
     5  H    1.084555   2.175111   1.753410   1.753423   0.000000
     6  C    2.549448   1.531349   2.808944   2.809153   3.493810
     7  H    2.151773   1.086374   2.511345   3.058605   2.491203
     8  H    2.151797   1.086387   3.058611   2.511277   2.491334
     9  H    2.809348   2.171195   3.163365   2.633458   3.803793
    10  H    2.809075   2.171246   2.632928   3.163208   3.803510
    11  H    3.493754   2.175090   3.803290   3.803625   4.326523
                    6          7          8          9         10
     6  C    0.000000
     7  H    2.151837   0.000000
     8  H    2.151920   1.739076   0.000000
     9  H    1.085377   3.058714   2.511393   0.000000
    10  H    1.085387   2.511595   3.058824   1.752922   0.000000
    11  H    1.084561   2.491126   2.491455   1.753418   1.753398
                   11
    11  H    0.000000
 Symmetry turned off by external request.
 Stoichiometry    C3H8
 Framework group  C1[X(C3H8)]
 Deg. of freedom    27
 Full point group                 C1      NOp   1
 Rotational constants (GHZ):          29.7027517           8.4174473           7.4525907

 **********************************************************************

            Population analysis using the SCF density.

 **********************************************************************

 Alpha  occ. eigenvalues --  -11.21829 -11.20819 -11.20815  -1.05670  -0.93085
 Alpha  occ. eigenvalues --   -0.80579  -0.62571  -0.59788  -0.55064  -0.53182
 Alpha  occ. eigenvalues --   -0.47242  -0.47184  -0.46538
 Alpha virt. eigenvalues --    0.23243   0.29434   0.29711   0.29787   0.31707
 Alpha virt. eigenvalues --    0.34094   0.35020   0.35176   0.38794   0.43616
 Alpha virt. eigenvalues --    0.73587   0.74974   0.76735   0.79019   0.80155
 Alpha virt. eigenvalues --    0.94585   0.99108   0.99168   1.03772   1.19897
 Alpha virt. eigenvalues --    1.20300   1.23376   1.24313   1.25823   1.27208
 Alpha virt. eigenvalues --    1.28495   1.29431   1.32057   1.64912   1.82071
          Condensed to atoms (all electrons):
               1          2          3          4          5          6
     1  C    5.156127   0.287054   0.387872   0.387869   0.389002  -0.068903
     2  C    0.287054   5.178765  -0.043564  -0.043562  -0.038866   0.287077
     3  H    0.387872  -0.043564   0.568995  -0.032093  -0.030388  -0.002773
     4  H    0.387869  -0.043562  -0.032093   0.568998  -0.030388  -0.002770
     5  H    0.389002  -0.038866  -0.030388  -0.030388   0.560291   0.004658
     6  C   -0.068903   0.287077  -0.002773  -0.002770   0.004658   5.156119
     7  H   -0.045760   0.400250  -0.003312   0.004467  -0.002410  -0.045754
     8  H   -0.045756   0.400244   0.004467  -0.003314  -0.002406  -0.045738
     9  H   -0.002768  -0.043548  -0.000036   0.002882  -0.000056   0.387861
    10  H   -0.002773  -0.043543   0.002884  -0.000036  -0.000056   0.387865
    11  H    0.004658  -0.038871  -0.000056  -0.000056  -0.000117   0.388997
               7          8          9         10         11
     1  C   -0.045760  -0.045756  -0.002768  -0.002773   0.004658
     2  C    0.400250   0.400244  -0.043548  -0.043543  -0.038871
     3  H   -0.003312   0.004467  -0.000036   0.002884  -0.000056
     4  H    0.004467  -0.003314   0.002882  -0.000036  -0.000056
     5  H   -0.002410  -0.002406  -0.000056  -0.000056  -0.000117
     6  C   -0.045754  -0.045738   0.387861   0.387865   0.388997
     7  H    0.578551  -0.035382   0.004465  -0.003308  -0.002410
     8  H   -0.035382   0.578534  -0.003313   0.004464  -0.002405
     9  H    0.004465  -0.003313   0.568989  -0.032093  -0.030389
    10  H   -0.003308   0.004464  -0.032093   0.568986  -0.030394
    11  H   -0.002410  -0.002405  -0.030389  -0.030394   0.560307
 Mulliken charges:
               1
     1  C   -0.446623
     2  C   -0.301436
     3  H    0.148004
     4  H    0.148002
     5  H    0.150736
     6  C   -0.446638
     7  H    0.150603
     8  H    0.150605
     9  H    0.148005
    10  H    0.148004
    11  H    0.150737
 Sum of Mulliken charges =  -0.00000
 Mulliken charges with hydrogens summed into heavy atoms:
               1
     1  C    0.000119
     2  C   -0.000227
     6  C    0.000109
 Electronic spatial extent (au):  <R**2>=            883.6794
 Charge=             -0.0000 electrons
 Dipole moment (field-independent basis, Debye):
    X=              0.0003    Y=             -0.0432    Z=              0.0378  Tot=              0.0574
 Quadrupole moment (field-independent basis, Debye-Ang):
   XX=            -21.7179   YY=            -22.3645   ZZ=            -22.2003
   XY=              0.0924   XZ=             -0.0137   YZ=             -0.0507
 Traceless Quadrupole moment (field-independent basis, Debye-Ang):
   XX=              0.3763   YY=             -0.2703   ZZ=             -0.1061
   XY=              0.0924   XZ=             -0.0137   YZ=             -0.0507
 Octapole moment (field-independent basis, Debye-Ang**2):
  XXX=             87.0722  YYY=           -154.7559  ZZZ=              0.0409  XYY=             30.1848
  XXY=            -49.7674  XXZ=             -0.7440  XZZ=             29.5455  YZZ=            -50.8270
  YYZ=             -1.3427  XYZ=              0.1708
 Hexadecapole moment (field-independent basis, Debye-Ang**3):
 XXXX=           -276.4682 YYYY=           -842.4607 ZZZZ=           -143.8894 XXXY=            203.6401
 XXXZ=              8.0585 YYYX=            212.7443 YYYZ=            -40.6679 ZZZX=              4.8596
 ZZZY=            -32.6920 XXYY=           -181.8734 XXZZ=            -70.4675 YYZZ=           -161.8411
 XXYZ=            -14.1937 YYXZ=              3.6042 ZZXY=             68.9721
 N-N= 8.267977996041D+01 E-N=-4.399356177962D+02  KE= 1.184309943516D+02
 1\1\GINC-N011\FOpt\RHF\6-31G\C3H8\JWHATLEY\03-Jul-2017\0\\# hf/6-31g n
 osymm opt\\Title Card Required\\0,1\C,-1.4423866614,3.331488422,0.8038
 85671\C,-1.3342972454,1.8564408978,0.407154483\H,-0.5748821565,3.88948
 18477,0.4661684555\H,-2.3218306051,3.7893940064,0.3624060925\H,-1.5129
 184962,3.4470564116,1.8799562346\C,-1.2326226345,1.6578965734,-1.10786
 10586\H,-0.4652156487,1.4162324776,0.8879060585\H,-2.1983860102,1.3169
 596291,0.7847093502\H,-2.1052528136,2.060558248,-1.6122643933\H,-0.358
 3139861,2.1611987142,-1.5082798868\H,-1.1567817421,0.6068127822,-1.364
 2670166\\Version=ES64L-G16RevA.03\HF=-118.2161737\RMSD=7.096e-09\RMSF=
 9.983e-06\Dipole=0.0000996,-0.0169993,0.014874\Quadrupole=0.2797907,-0
 .2009381,-0.0788526,0.0686818,-0.0101955,-0.0376769\PG=C01 [X(C3H8)]\\
 @


 Experience is what you get when you don't get what you want.
 -- Dan Stanford
 Job cpu time:       0 days  0 hours  0 minutes 10.2 seconds.
 Elapsed time:       0 days  0 hours  0 minutes  9.8 seconds.
 File lengths (MBytes):  RWF=      6 Int=      0 D2E=      0 Chk=      2 Scr=      1
 Normal termination of Gaussian 16 at Mon Jul  3 23:57:55 2017.
