       8
 i =        1, E =       -14.9560726442
  C         5.7648026723        5.0000876773        4.9999602331
  H         6.1655744433        5.7692417718        4.3269961897
  H         6.1656169736        4.0326951867        4.6704200146
  H         6.1656282592        5.1983258448        6.0025061744
  C         4.2351534392        4.9999746854        5.0000784542
  H         3.8343838345        4.8019379663        3.9974840747
  H         3.8344381495        4.2306836318        5.6728998804
  H         3.8343976370        5.9673107317        5.3298130556
       8
 i =        2, E =       -14.9560861450
  C         5.7640010214        5.0000740308        4.9999515455
  H         6.1668682857        5.7700441187        4.3262311851
  H         6.1670102647        4.0316856421        4.6700683469
  H         6.1670236267        5.1986332737        6.0035167918
  C         4.2360447314        4.9999858085        5.0000848422
  H         3.8329574757        4.8016242727        3.9965120035
  H         3.8331136674        4.2299146116        5.6736441961
  H         3.8329759993        5.9682861784        5.3301410118
       8
 i =        3, E =       -14.9560862017
  C         5.7638538961        5.0001215012        4.9999222833
  H         6.1668994112        5.7700099645        4.3262027317
  H         6.1670466315        4.0317698852        4.6701094119
  H         6.1670734094        5.1986635669        6.0034259309
  C         4.2361150275        4.9999363459        5.0001128522
  H         3.8329331099        4.8015773306        3.9965602733
  H         3.8331081570        4.2299192013        5.6737054348
  H         3.8329657900        5.9682438298        5.3301059623
       8
 i =        4, E =       -14.9560862017
  C         5.7638538961        5.0001215012        4.9999222833
  H         6.1668994112        5.7700099645        4.3262027317
  H         6.1670466315        4.0317698852        4.6701094119
  H         6.1670734094        5.1986635669        6.0034259309
  C         4.2361150275        4.9999363459        5.0001128522
  H         3.8329331099        4.8015773306        3.9965602733
  H         3.8331081570        4.2299192013        5.6737054348
  H         3.8329657900        5.9682438298        5.3301059623
       8
 i =        1, E =       -14.9560726442
  C         5.7648026723        5.0000876773        4.9999602331
  H         6.1655744433        5.7692417718        4.3269961897
  H         6.1656169736        4.0326951867        4.6704200146
  H         6.1656282592        5.1983258448        6.0025061744
  C         4.2351534392        4.9999746854        5.0000784542
  H         3.8343838345        4.8019379663        3.9974840747
  H         3.8344381495        4.2306836318        5.6728998804
  H         3.8343976370        5.9673107317        5.3298130556
       8
 i =        2, E =       -14.9560861450
  C         5.7640010214        5.0000740308        4.9999515455
  H         6.1668682857        5.7700441187        4.3262311851
  H         6.1670102647        4.0316856421        4.6700683469
  H         6.1670236267        5.1986332737        6.0035167918
  C         4.2360447314        4.9999858085        5.0000848422
  H         3.8329574757        4.8016242727        3.9965120035
  H         3.8331136674        4.2299146116        5.6736441961
  H         3.8329759993        5.9682861784        5.3301410118
       8
 i =        3, E =       -14.9560862017
  C         5.7638538961        5.0001215012        4.9999222833
  H         6.1668994112        5.7700099645        4.3262027317
  H         6.1670466315        4.0317698852        4.6701094119
  H         6.1670734094        5.1986635669        6.0034259309
  C         4.2361150275        4.9999363459        5.0001128522
  H         3.8329331099        4.8015773306        3.9965602733
  H         3.8331081570        4.2299192013        5.6737054348
  H         3.8329657900        5.9682438298        5.3301059623
       8
 i =        4, E =       -14.9560862017
  C         5.7638538961        5.0001215012        4.9999222833
  H         6.1668994112        5.7700099645        4.3262027317
  H         6.1670466315        4.0317698852        4.6701094119
  H         6.1670734094        5.1986635669        6.0034259309
  C         4.2361150275        4.9999363459        5.0001128522
  H         3.8329331099        4.8015773306        3.9965602733
  H         3.8331081570        4.2299192013        5.6737054348
  H         3.8329657900        5.9682438298        5.3301059623
       8
 i =        1, E =       -14.9560726442
  C         5.7648026723        5.0000876773        4.9999602331
  H         6.1655744433        5.7692417718        4.3269961897
  H         6.1656169736        4.0326951867        4.6704200146
  H         6.1656282592        5.1983258448        6.0025061744
  C         4.2351534392        4.9999746854        5.0000784542
  H         3.8343838345        4.8019379663        3.9974840747
  H         3.8344381495        4.2306836318        5.6728998804
  H         3.8343976370        5.9673107317        5.3298130556
       8
 i =        2, E =       -14.9560861450
  C         5.7640010214        5.0000740308        4.9999515455
  H         6.1668682857        5.7700441187        4.3262311851
  H         6.1670102647        4.0316856421        4.6700683469
  H         6.1670236267        5.1986332737        6.0035167918
  C         4.2360447314        4.9999858085        5.0000848422
  H         3.8329574757        4.8016242727        3.9965120035
  H         3.8331136674        4.2299146116        5.6736441961
  H         3.8329759993        5.9682861784        5.3301410118
       8
 i =        3, E =       -14.9560862017
  C         5.7638538961        5.0001215012        4.9999222833
  H         6.1668994112        5.7700099645        4.3262027317
  H         6.1670466315        4.0317698852        4.6701094119
  H         6.1670734094        5.1986635669        6.0034259309
  C         4.2361150275        4.9999363459        5.0001128522
  H         3.8329331099        4.8015773306        3.9965602733
  H         3.8331081570        4.2299192013        5.6737054348
  H         3.8329657900        5.9682438298        5.3301059623
       8
 i =        4, E =       -14.9560862017
  C         5.7638538961        5.0001215012        4.9999222833
  H         6.1668994112        5.7700099645        4.3262027317
  H         6.1670466315        4.0317698852        4.6701094119
  H         6.1670734094        5.1986635669        6.0034259309
  C         4.2361150275        4.9999363459        5.0001128522
  H         3.8329331099        4.8015773306        3.9965602733
  H         3.8331081570        4.2299192013        5.6737054348
  H         3.8329657900        5.9682438298        5.3301059623
       8
 i =        1, E =       -14.9545505936
  C         5.7537496185        5.0124274744        4.9989233954
  H         6.1587957666        5.7777430709        4.3127252123
  H         6.1462832838        4.0476614515        4.6645537722
  H         6.1682914340        5.1862360822        6.0233163753
  C         4.2472820249        4.9712355873        4.9962143396
  H         3.8368094241        4.8272782773        3.9838222180
  H         3.8056357369        4.1911483173        5.6728265031
  H         3.8573742663        5.9416663912        5.3326061856
       8
 i =        2, E =       -14.9560090871
  C         5.7569697054        4.9955643076        5.0044439349
  H         6.1518465513        5.7715964035        4.3320320178
  H         6.1643254381        4.0328101107        4.6587340074
  H         6.1628014822        5.1950720175        6.0034776724
  C         4.2354168953        4.9886475099        5.0016884814
  H         3.8388428757        4.8124124296        3.9911408818
  H         3.8269215253        4.2049222732        5.6497978101
  H         3.8370770786        5.9544859383        5.3448837556
       8
 i =        3, E =       -14.9560670924
  C         5.7589504752        4.9959061825        4.9996135742
  H         6.1540868237        5.7740863499        4.3310857988
  H         6.1675836084        4.0317659040        4.6627119314
  H         6.1626507380        5.1908294364        6.0035094693
  C         4.2348511488        4.9915837006        4.9987491575
  H         3.8371669213        4.8128545002        3.9894591074
  H         3.8279384335        4.2075682165        5.6532178387
  H         3.8310835430        5.9527680796        5.3470671412
       8
 i =        4, E =       -14.9560785758
  C         5.7598920343        4.9968708108        4.9994909381
  H         6.1576484428        5.7736147497        4.3308875577
  H         6.1684646132        4.0328614301        4.6628829249
  H         6.1632360541        5.1898118499        6.0041666351
  C         4.2332816632        4.9921475592        4.9975608002
  H         3.8342239566        4.8134133708        3.9888427395
  H         3.8296780411        4.2081756169        5.6548845861
  H         3.8279614349        5.9526045176        5.3467364312
       8
 i =        5, E =       -14.9560814827
  C         5.7609697990        4.9976601667        4.9990091679
  H         6.1608780521        5.7739657128        4.3311476367
  H         6.1681965512        4.0331772410        4.6624280000
  H         6.1627545735        5.1897760840        6.0044273470
  C         4.2329079257        4.9927018381        4.9978910447
  H         3.8321648986        4.8133639118        3.9897982819
  H         3.8305769614        4.2083134975        5.6552075455
  H         3.8259407570        5.9530342046        5.3458793722
       8
 i =        6, E =       -14.9560821151
  C         5.7607825581        4.9979853432        4.9992262815
  H         6.1618068076        5.7740985821        4.3315839828
  H         6.1675701771        4.0335896430        4.6621085432
  H         6.1627823431        5.1899330777        6.0044963750
  C         4.2327100263        4.9930854486        4.9976339514
  H         3.8315336971        4.8128915025        3.9898777927
  H         3.8312063638        4.2086661856        5.6554379409
  H         3.8259527028        5.9534398794        5.3457849282
       8
 i =        7, E =       -14.9560821151
  C         5.7607825581        4.9979853432        4.9992262815
  H         6.1618068076        5.7740985821        4.3315839828
  H         6.1675701771        4.0335896430        4.6621085432
  H         6.1627823431        5.1899330777        6.0044963750
  C         4.2327100263        4.9930854486        4.9976339514
  H         3.8315336971        4.8128915025        3.9898777927
  H         3.8312063638        4.2086661856        5.6554379409
  H         3.8259527028        5.9534398794        5.3457849282
       8
 i =        1, E =       -14.9545433410
  C         5.7535917472        5.0124257801        4.9989876127
  H         6.1587909751        5.7777577146        4.3127604388
  H         6.1461620623        4.0476766726        4.6645127484
  H         6.1682881052        5.1861537306        6.0233759067
  C         4.2474176765        4.9712335194        4.9961938672
  H         3.8368088262        4.8271326014        3.9837715638
  H         3.8058100414        4.1912704685        5.6729505719
  H         3.8574976244        5.9416998427        5.3325672618
       8
 i =        2, E =       -14.9560085758
  C         5.7569612392        4.9955620588        5.0044514300
  H         6.1518287979        5.7716302546        4.3320884561
  H         6.1642794070        4.0327777323        4.6586907423
  H         6.1627465962        5.1949996273        6.0034947488
  C         4.2354730668        4.9886649059        5.0017049704
  H         3.8388899386        4.8122800321        3.9911855823
  H         3.8270452757        4.2050020915        5.6498951738
  H         3.8371211108        5.9545442086        5.3448151673
       8
 i =        3, E =       -14.9560670330
  C         5.7589432866        4.9959075572        4.9996200860
  H         6.1541026454        5.7741090216        4.3311396195
  H         6.1675644880        4.0317629323        4.6626742169
  H         6.1626301494        5.1907605843        6.0035247820
  C         4.2348817634        4.9915837415        4.9987632043
  H         3.8371927721        4.8127361313        3.9894964956
  H         3.8280244082        4.2076397549        5.6533299981
  H         3.8311172868        5.9528110623        5.3469913844
       8
 i =        4, E =       -14.9560786389
  C         5.7599091344        4.9968685371        4.9994971930
  H         6.1576827834        5.7736352268        4.3309349940
  H         6.1684700111        4.0328673425        4.6628455935
  H         6.1632386563        5.1897499433        6.0041881426
  C         4.2333054068        4.9921489620        4.9975728680
  H         3.8342247560        4.8133021914        3.9888862304
  H         3.8297312221        4.2082450496        5.6549954125
  H         3.8279703874        5.9526352927        5.3466558338
       8
 i =        5, E =       -14.9560815228
  C         5.7609830597        4.9976516037        4.9990168616
  H         6.1608933746        5.7739869229        4.3311915588
  H         6.1682094160        4.0331841673        4.6623969880
  H         6.1627738731        5.1897255977        6.0044418245
  C         4.2329281015        4.9926943354        4.9979109600
  H         3.8321817336        4.8132532136        3.9898394383
  H         3.8305957525        4.2083712998        5.6553069617
  H         3.8259704794        5.9530628127        5.3458038355
       8
 i =        6, E =       -14.9560821497
  C         5.7607996871        4.9979753339        4.9992381993
  H         6.1618163213        5.7741169827        4.3316232282
  H         6.1675857216        4.0335943665        4.6620790284
  H         6.1628065051        5.1898870288        6.0045124846
  C         4.2327302492        4.9930771359        4.9976521845
  H         3.8315492508        4.8127845588        3.9899159522
  H         3.8312226269        4.2087236293        5.6555333985
  H         3.8259808831        5.9534663522        5.3457121861
       8
 i =        7, E =       -14.9560821497
  C         5.7607996871        4.9979753339        4.9992381993
  H         6.1618163213        5.7741169827        4.3316232282
  H         6.1675857216        4.0335943665        4.6620790284
  H         6.1628065051        5.1898870288        6.0045124846
  C         4.2327302492        4.9930771359        4.9976521845
  H         3.8315492508        4.8127845588        3.9899159522
  H         3.8312226269        4.2087236293        5.6555333985
  H         3.8259808831        5.9534663522        5.3457121861
       8
 i =        1, E =       -14.9545345684
  C         5.7534019206        5.0124232383        4.9990657012
  H         6.1587833117        5.7777734181        4.3128031254
  H         6.1460165711        4.0476945392        4.6644640906
  H         6.1682838880        5.1860561103        6.0234481458
  C         4.2475786792        4.9712317302        4.9961683590
  H         3.8368058528        4.8269588647        3.9837102940
  H         3.8060191931        4.1914165272        5.6730978893
  H         3.8576428349        5.9417399484        5.3325227385
       8
 i =        2, E =       -14.9560079543
  C         5.7569504653        4.9955588616        5.0044606554
  H         6.1518066494        5.7716701843        4.3321565258
  H         6.1642241142        4.0327382977        4.6586399538
  H         6.1626794351        5.1949136982        6.0035149126
  C         4.2355388634        4.9886864510        5.0017249801
  H         3.8389451264        4.8121223513        3.9912397082
  H         3.8271928020        4.2050969723        5.6500102168
  H         3.8371713999        5.9546137391        5.3447344669
       8
 i =        3, E =       -14.9560669591
  C         5.7589337804        4.9959092684        4.9996282699
  H         6.1541208811        5.7741356459        4.3312041092
  H         6.1675407787        4.0317592763        4.6626301494
  H         6.1626043208        5.1906787888        6.0035433380
  C         4.2349170370        4.9915836768        4.9987800829
  H         3.8372225818        4.8125955352        3.9895412579
  H         3.8281263190        4.2077244703        5.6534634336
  H         3.8311561722        5.9528619319        5.3469019071
       8
 i =        4, E =       -14.9560787135
  C         5.7599287147        4.9968658888        4.9995050680
  H         6.1577231676        5.7736593573        4.3309916816
  H         6.1684755883        4.0328743932        4.6628019112
  H         6.1632406421        5.1896765352        6.0042143012
  C         4.2333326018        4.9921504298        4.9975874611
  H         3.8342245528        4.8131702174        3.9889382735
  H         3.8297934306        4.2083272671        5.6551272795
  H         3.8279797338        5.9526714386        5.3465604403
       8
 i =        5, E =       -14.9560815701
  C         5.7609976821        4.9976415335        4.9990264633
  H         6.1609109810        5.7740119538        4.3312441781
  H         6.1682236353        4.0331924022        4.6623608315
  H         6.1627955131        5.1896655707        6.0044595583
  C         4.2329510401        4.9926852838        4.9979348018
  H         3.8322007900        4.8131216554        3.9898884342
  H         3.8306176348        4.2084396830        5.6554253863
  H         3.8260047332        5.9530966282        5.3457145199
       8
 i =        6, E =       -14.9560821904
  C         5.7608190553        4.9979634684        4.9992527528
  H         6.1618269682        5.7741387838        4.3316703437
  H         6.1676031636        4.0335998690        4.6620445721
  H         6.1628338810        5.1898323197        6.0045321418
  C         4.2327533621        4.9930672188        4.9976740766
  H         3.8315667470        4.8126573964        3.9899615339
  H         3.8312414113        4.2087916463        5.6556469898
  H         3.8260131759        5.9534976268        5.3456261474
       8
 i =        7, E =       -14.9560821904
  C         5.7608190553        4.9979634684        4.9992527528
  H         6.1618269682        5.7741387838        4.3316703437
  H         6.1676031636        4.0335998690        4.6620445721
  H         6.1628338810        5.1898323197        6.0045321418
  C         4.2327533621        4.9930672188        4.9976740766
  H         3.8315667470        4.8126573964        3.9899615339
  H         3.8312414113        4.2087916463        5.6556469898
  H         3.8260131759        5.9534976268        5.3456261474
       8
 i =        1, E =       -14.9545239391
  C         5.7531737790        5.0124194871        4.9991607829
  H         6.1587714362        5.7777896521        4.3128548208
  H         6.1458419731        4.0477154141        4.6644064578
  H         6.1682786027        5.1859406833        6.0235359693
  C         4.2477694057        4.9712304831        4.9961364361
  H         3.8367990617        4.8267519536        3.9836361464
  H         3.8062700457        4.1915910825        5.6732724340
  H         3.8578131657        5.9417879234        5.3324723383
       8
 i =        2, E =       -14.9560071974
  C         5.7569365444        4.9955543131        5.0044720078
  H         6.1517788904        5.7717170669        4.3322386388
  H         6.1641576463        4.0326902235        4.6585805792
  H         6.1625971085        5.1948119064        6.0035385501
  C         4.2356154022        4.9887132088        5.0017492855
  H         3.8390095180        4.8119348438        3.9913052832
  H         3.8273683985        4.2052094171        5.6501457711
  H         3.8372282035        5.9546966414        5.3446398732
       8
 i =        3, E =       -14.9560668667
  C         5.7589209498        4.9959113653        4.9996385316
  H         6.1541416090        5.7741667313        4.3312813102
  H         6.1675111619        4.0317547541        4.6625789101
  H         6.1625717031        5.1905817880        6.0035657398
  C         4.2349570834        4.9915834458        4.9988003866
  H         3.8372565607        4.8124288662        3.9895948050
  H         3.8282467269        4.2078244716        5.6536219161
  H         3.8312004765        5.9529220064        5.3467965751
       8
 i =        4, E =       -14.9560788012
  C         5.7599509864        4.9968627965        4.9995150149
  H         6.1577702787        5.7736877168        4.3310592385
  H         6.1684808596        4.0328826712        4.6627509516
  H         6.1632413461        5.1895897290        6.0042462003
  C         4.2333635245        4.9921518807        4.9976051300
  H         3.8342225324        4.8130139050        3.9890006088
  H         3.8298656623        4.2084244532        5.6552838407
  H         3.8279888984        5.9527136080        5.3464478211
       8
 i =        5, E =       -14.9560816255
  C         5.7610131933        4.9976297291        4.9990384186
  H         6.1609309751        5.7740413342        4.3313071681
  H         6.1682389123        4.0332022269        4.6623189172
  H         6.1628193379        5.1895943077        6.0044811735
  C         4.2329765784        4.9926743420        4.9979633675
  H         3.8322220323        4.8129656135        3.9899466232
  H         3.8306428955        4.2085202913        5.6555662997
  H         3.8260438804        5.9531365790        5.3456092498
       8
 i =        6, E =       -14.9560822381
  C         5.7608405899        4.9979494350        4.9992705580
  H         6.1618385994        5.7741645245        4.3317268376
  H         6.1676222655        4.0336062254        4.6620044988
  H         6.1628644380        5.1897674550        6.0045561563
  C         4.2327794237        4.9930554462        4.9977003106
  H         3.8315859373        4.8125064789        3.9900159345
  H         3.8312628946        4.2088720391        5.6557819453
  H         3.8260497187        5.9535344747        5.3455246819
       8
 i =        7, E =       -14.9560822381
  C         5.7608405899        4.9979494350        4.9992705580
  H         6.1618385994        5.7741645245        4.3317268376
  H         6.1676222655        4.0336062254        4.6620044988
  H         6.1628644380        5.1897674550        6.0045561563
  C         4.2327794237        4.9930554462        4.9977003106
  H         3.8315859373        4.8125064789        3.9900159345
  H         3.8312628946        4.2088720391        5.6557819453
  H         3.8260497187        5.9535344747        5.3455246819
       8
 i =        1, E =       -14.9425409107
  C         5.7360301973        5.0341146205        4.9902351483
  H         6.1486199778        5.8092671948        4.2803958921
  H         6.1238784722        4.0609354599        4.6471288210
  H         6.1776112387        5.1639346195        6.0703163510
  C         4.2509483264        4.9083836475        4.9936853372
  H         3.8409986614        4.8807253645        3.9479429930
  H         3.7442335208        4.1053156010        5.6762125160
  H         3.8941427947        5.9024503633        5.3368570778
       8
 i =        2, E =       -14.9542268331
  C         5.7443929811        4.9933386941        5.0210025431
  H         6.1200333644        5.7759525437        4.3413967408
  H         6.1730648315        4.0444588846        4.6354146045
  H         6.1556209918        5.1929164315        5.9919217495
  C         4.2332990884        4.9503635550        5.0035015894
  H         3.8413245936        4.8298078705        3.9862443388
  H         3.8150389063        4.1681599162        5.5935299013
  H         3.8349819697        5.9088063918        5.3708150871
       8
 i =        3, E =       -14.9556009817
  C         5.7444408167        4.9876814390        4.9911397194
  H         6.1226696811        5.7866683058        4.3424312760
  H         6.1853157053        4.0395749377        4.6470950954
  H         6.1516999013        5.1821528493        6.0010425611
  C         4.2345579280        4.9763552482        4.9898469472
  H         3.8437335208        4.8266543558        3.9773588722
  H         3.8168212102        4.1524192402        5.6128633432
  H         3.8194263399        5.9125810432        5.3802861056
       8
 i =        4, E =       -14.9559637898
  C         5.7482015870        4.9938790870        4.9960428452
  H         6.1289663571        5.7874128862        4.3390512483
  H         6.1811010581        4.0427523809        4.6464719096
  H         6.1523016819        5.1817630970        6.0035618915
  C         4.2297616494        4.9663603671        4.9926711567
  H         3.8389398798        4.8294791868        3.9750821256
  H         3.8224596155        4.1542166438        5.6144111332
  H         3.8179559997        5.9104375407        5.3761142504
       8
 i =        5, E =       -14.9560294988
  C         5.7520989359        4.9960182861        4.9984300425
  H         6.1346291576        5.7880582330        4.3390407711
  H         6.1799122232        4.0439305610        4.6456718854
  H         6.1517374323        5.1818579420        6.0047914644
  C         4.2277910637        4.9673305966        4.9915384156
  H         3.8337020717        4.8271716682        3.9750546917
  H         3.8288140814        4.1548774395        5.6145948140
  H         3.8118098959        5.9096440777        5.3757379759
       8
 i =        6, E =       -14.9560516540
  C         5.7540087715        4.9976622791        4.9962224411
  H         6.1419551803        5.7901439049        4.3408391658
  H         6.1790103467        4.0450853072        4.6459680937
  H         6.1503710901        5.1810340074        6.0048206982
  C         4.2255231167        4.9689171299        4.9919203905
  H         3.8305734242        4.8247644324        3.9756736898
  H         3.8336786360        4.1543497857        5.6157994900
  H         3.8058331179        5.9102615218        5.3754667255
       8
 i =        7, E =       -14.9560562971
  C         5.7544046299        4.9982795975        4.9967346781
  H         6.1444574641        5.7908502636        4.3418131496
  H         6.1772743100        4.0457423304        4.6451505844
  H         6.1508013690        5.1808546136        6.0058642510
  C         4.2255823874        4.9704528783        4.9907506990
  H         3.8288646918        4.8232766018        3.9758464205
  H         3.8352635003        4.1549132370        5.6168944364
  H         3.8041904599        5.9102286697        5.3753701815
       8
 i =        8, E =       -14.9560584090
  C         5.7542525032        4.9986148856        4.9964969461
  H         6.1453633931        5.7916717876        4.3428573010
  H         6.1761251374        4.0459897460        4.6446312395
  H         6.1506758356        5.1802168058        6.0060061865
  C         4.2259595346        4.9711328053        4.9911311529
  H         3.8289271464        4.8226390419        3.9765801209
  H         3.8355262939        4.1557129179        5.6175906825
  H         3.8037042000        5.9108083933        5.3748767471
       8
 i =        9, E =       -14.9560584090
  C         5.7542525032        4.9986148856        4.9964969461
  H         6.1453633931        5.7916717876        4.3428573010
  H         6.1761251374        4.0459897460        4.6446312395
  H         6.1506758356        5.1802168058        6.0060061865
  C         4.2259595346        4.9711328053        4.9911311529
  H         3.8289271464        4.8226390419        3.9765801209
  H         3.8355262939        4.1557129179        5.6175906825
  H         3.8037042000        5.9108083933        5.3748767471
       8
 i =        1, E =       -14.9425178144
  C         5.7354760294        5.0335678639        4.9905824432
  H         6.1481378409        5.8091434477        4.2809358774
  H         6.1238066279        4.0605775810        4.6469536628
  H         6.1775623884        5.1632002875        6.0706818449
  C         4.2515833934        4.9084378280        4.9938437536
  H         3.8411705305        4.8800987461        3.9481460299
  H         3.7445900024        4.1054741532        5.6765077830
  H         3.8941360368        5.9022649782        5.3370261212
       8
 i =        2, E =       -14.9542126606
  C         5.7442484417        4.9930610785        5.0212769123
  H         6.1196990144        5.7759287396        4.3420262991
  H         6.1730985226        4.0442453551        4.6353159849
  H         6.1554537292        5.1922600253        5.9920592966
  C         4.2334411848        4.9501141933        5.0037681334
  H         3.8415580696        4.8291651299        3.9865481987
  H         3.8153663288        4.1680075635        5.5938862595
  H         3.8349457348        5.9086188223        5.3708326232
       8
 i =        3, E =       -14.9556029789
  C         5.7443030872        4.9875342475        4.9913931882
  H         6.1225031586        5.7866820774        4.3429513294
  H         6.1853002437        4.0394887385        4.6470013606
  H         6.1515689273        5.1815492181        6.0013619087
  C         4.2346298566        4.9758651449        4.9901097837
  H         3.8438625426        4.8260248544        3.9775810299
  H         3.8170913217        4.1522312756        5.6132658982
  H         3.8194684657        5.9123015532        5.3802665658
       8
 i =        4, E =       -14.9559628899
  C         5.7481333980        4.9936896102        4.9962993519
  H         6.1288358841        5.7874414749        4.3395689726
  H         6.1811710373        4.0426956724        4.6463804726
  H         6.1521974080        5.1812085268        6.0038868834
  C         4.2298522166        4.9659970607        4.9928416927