       8
 i =        1, E =       -14.9417142787
  C         5.7600494790        5.0000000019        5.2114688706
  C         4.2399505450        5.0000000019        5.2114688705
  H         3.8871373725        4.9999999971        4.2207875807
  H         3.8876913511        5.8578934000        5.7075817792
  H         3.8876913540        4.1421066007        5.7075817750
  H         6.1128626203        4.9999999971        4.2207875664
  H         6.1123086417        5.8578934124        5.7075817864
  H         6.1123086388        4.1421065882        5.7075817823
       8
 i =        2, E =       -14.9503192858
  C         5.7672753167        5.0000000019        5.2108007208
  C         4.2327247056        5.0000000020        5.2108007206
  H         3.8427195649        4.9999999974        4.2049359219
  H         3.8436958078        5.8711738448        5.7146839767
  H         3.8436958130        4.1288261554        5.7146839723
  H         6.1572804293        4.9999999974        4.2049359074
  H         6.1563041864        5.8711738576        5.7146839842
  H         6.1563041812        4.1288261425        5.7146839798
       8
 i =        1, E =       -14.9417142787
  C         5.7600494790        5.0000000019        5.2114688706
  C         4.2399505450        5.0000000019        5.2114688705
  H         3.8871373725        4.9999999971        4.2207875807
  H         3.8876913511        5.8578934000        5.7075817792
  H         3.8876913540        4.1421066007        5.7075817750
  H         6.1128626203        4.9999999971        4.2207875664
  H         6.1123086417        5.8578934124        5.7075817864
  H         6.1123086388        4.1421065882        5.7075817823
       8
 i =        2, E =       -14.9503192858
  C         5.7672753167        5.0000000019        5.2108007208
  C         4.2327247056        5.0000000020        5.2108007206
  H         3.8427195649        4.9999999974        4.2049359219
  H         3.8436958078        5.8711738448        5.7146839767
  H         3.8436958130        4.1288261554        5.7146839723
  H         6.1572804293        4.9999999974        4.2049359074
  H         6.1563041864        5.8711738576        5.7146839842
  H         6.1563041812        4.1288261425        5.7146839798
       8
 i =        3, E =       -14.9518725511
  C         5.7706609329        5.0000000018        5.2100195671
  C         4.2293390825        5.0000000021        5.2100195668
  H         3.8163650768        4.9999999979        4.1946309194
  H         3.8175966073        5.8795792304        5.7187073242
  H         3.8175966147        4.1204207694        5.7187073192
  H         6.1836349214        4.9999999978        4.1946309059
  H         6.1824033907        5.8795792422        5.7187073313
  H         6.1824033832        4.1204207572        5.7187073265
       8
 i =        4, E =       -14.9518924175
  C         5.7707990058        5.0000000019        5.2095441840
  C         4.2292010088        5.0000000021        5.2095441836
  H         3.8164902390        4.9999999981        4.1922271110
  H         3.8177080803        5.8812603152        5.7192062735
  H         3.8177080882        4.1187396843        5.7192062680
  H         6.1835097605        4.9999999980        4.1922270968
  H         6.1822919190        5.8812603276        5.7192062811
  H         6.1822919108        4.1187396715        5.7192062757
       8
 i =        5, E =       -14.9518957457
  C         5.7707427457        5.0000000018        5.2089340855
  C         4.2292572694        5.0000000021        5.2089340851
  H         3.8175883464        4.9999999985        4.1906688826
  H         3.8187699286        5.8820758205        5.7190759632
  H         3.8187699370        4.1179241787        5.7190759570
  H         6.1824116544        4.9999999982        4.1906688676
  H         6.1812300718        5.8820758335        5.7190759714
  H         6.1812300632        4.1179241653        5.7190759653
       8
 i =        6, E =       -14.9518964513
  C         5.7706826348        5.0000000018        5.2083546300
  C         4.2293173815        5.0000000021        5.2083546295
  H         3.8180290421        4.9999999988        4.1899127347
  H         3.8191848170        5.8822235236        5.7185822307
  H         3.8191848254        4.1177764753        5.7185822239
  H         6.1819709596        4.9999999985        4.1899127195
  H         6.1808151844        5.8822235371        5.7185822391
  H         6.1808151756        4.1177764612        5.7185822324
       8
 i =        1, E =       -14.9560726442
  C         5.7648026723        5.0000876773        4.9999602331
  H         6.1655744433        5.7692417718        4.3269961897
  H         6.1656169736        4.0326951867        4.6704200146
  H         6.1656282592        5.1983258448        6.0025061744
  C         4.2351534392        4.9999746854        5.0000784542
  H         3.8343838345        4.8019379663        3.9974840747
  H         3.8344381495        4.2306836318        5.6728998804
  H         3.8343976370        5.9673107317        5.3298130556
       8
 i =        2, E =       -14.9560861450
  C         5.7640010214        5.0000740308        4.9999515455
  H         6.1668682857        5.7700441187        4.3262311851
  H         6.1670102647        4.0316856421        4.6700683469
  H         6.1670236267        5.1986332737        6.0035167918
  C         4.2360447314        4.9999858085        5.0000848422
  H         3.8329574757        4.8016242727        3.9965120035
  H         3.8331136674        4.2299146116        5.6736441961
  H         3.8329759993        5.9682861784        5.3301410118
       8
 i =        3, E =       -14.9560862017
  C         5.7638538961        5.0001215012        4.9999222833
  H         6.1668994112        5.7700099645        4.3262027317
  H         6.1670466315        4.0317698852        4.6701094119
  H         6.1670734094        5.1986635669        6.0034259309
  C         4.2361150275        4.9999363459        5.0001128522
  H         3.8329331099        4.8015773306        3.9965602733
  H         3.8331081570        4.2299192013        5.6737054348
  H         3.8329657900        5.9682438298        5.3301059623
       8
 i =        4, E =       -14.9560862017
  C         5.7638538961        5.0001215012        4.9999222833
  H         6.1668994112        5.7700099645        4.3262027317
  H         6.1670466315        4.0317698852        4.6701094119
  H         6.1670734094        5.1986635669        6.0034259309
  C         4.2361150275        4.9999363459        5.0001128522
  H         3.8329331099        4.8015773306        3.9965602733
  H         3.8331081570        4.2299192013        5.6737054348
  H         3.8329657900        5.9682438298        5.3301059623
       8
 i =        1, E =       -14.9560726442
  C         5.7648026723        5.0000876773        4.9999602331
  H         6.1655744433        5.7692417718        4.3269961897
  H         6.1656169736        4.0326951867        4.6704200146
  H         6.1656282592        5.1983258448        6.0025061744
  C         4.2351534392        4.9999746854        5.0000784542
  H         3.8343838345        4.8019379663        3.9974840747
  H         3.8344381495        4.2306836318        5.6728998804
  H         3.8343976370        5.9673107317        5.3298130556
       8
 i =        2, E =       -14.9560861450
  C         5.7640010214        5.0000740308        4.9999515455
  H         6.1668682857        5.7700441187        4.3262311851
  H         6.1670102647        4.0316856421        4.6700683469
  H         6.1670236267        5.1986332737        6.0035167918
  C         4.2360447314        4.9999858085        5.0000848422
  H         3.8329574757        4.8016242727        3.9965120035
  H         3.8331136674        4.2299146116        5.6736441961
  H         3.8329759993        5.9682861784        5.3301410118
       8
 i =        3, E =       -14.9560862017
  C         5.7638538961        5.0001215012        4.9999222833
  H         6.1668994112        5.7700099645        4.3262027317
  H         6.1670466315        4.0317698852        4.6701094119
  H         6.1670734094        5.1986635669        6.0034259309
  C         4.2361150275        4.9999363459        5.0001128522
  H         3.8329331099        4.8015773306        3.9965602733
  H         3.8331081570        4.2299192013        5.6737054348
  H         3.8329657900        5.9682438298        5.3301059623
       8
 i =        4, E =       -14.9560862017
  C         5.7638538961        5.0001215012        4.9999222833
  H         6.1668994112        5.7700099645        4.3262027317
  H         6.1670466315        4.0317698852        4.6701094119
  H         6.1670734094        5.1986635669        6.0034259309
  C         4.2361150275        4.9999363459        5.0001128522
  H         3.8329331099        4.8015773306        3.9965602733
  H         3.8331081570        4.2299192013        5.6737054348
  H         3.8329657900        5.9682438298        5.3301059623
       8
 i =        1, E =       -14.9560726442
  C         5.7648026723        5.0000876773        4.9999602331
  H         6.1655744433        5.7692417718        4.3269961897
  H         6.1656169736        4.0326951867        4.6704200146
  H         6.1656282592        5.1983258448        6.0025061744
  C         4.2351534392        4.9999746854        5.0000784542
  H         3.8343838345        4.8019379663        3.9974840747
  H         3.8344381495        4.2306836318        5.6728998804
  H         3.8343976370        5.9673107317        5.3298130556
       8
 i =        2, E =       -14.9560861450
  C         5.7640010214        5.0000740308        4.9999515455
  H         6.1668682857        5.7700441187        4.3262311851
  H         6.1670102647        4.0316856421        4.6700683469
  H         6.1670236267        5.1986332737        6.0035167918
  C         4.2360447314        4.9999858085        5.0000848422
  H         3.8329574757        4.8016242727        3.9965120035
  H         3.8331136674        4.2299146116        5.6736441961
  H         3.8329759993        5.9682861784        5.3301410118
       8
 i =        3, E =       -14.9560862017
  C         5.7638538961        5.0001215012        4.9999222833
  H         6.1668994112        5.7700099645        4.3262027317
  H         6.1670466315        4.0317698852        4.6701094119
  H         6.1670734094        5.1986635669        6.0034259309
  C         4.2361150275        4.9999363459        5.0001128522
  H         3.8329331099        4.8015773306        3.9965602733
  H         3.8331081570        4.2299192013        5.6737054348
  H         3.8329657900        5.9682438298        5.3301059623
       8
 i =        4, E =       -14.9560862017
  C         5.7638538961        5.0001215012        4.9999222833
  H         6.1668994112        5.7700099645        4.3262027317
  H         6.1670466315        4.0317698852        4.6701094119
  H         6.1670734094        5.1986635669        6.0034259309
  C         4.2361150275        4.9999363459        5.0001128522
  H         3.8329331099        4.8015773306        3.9965602733
  H         3.8331081570        4.2299192013        5.6737054348
  H         3.8329657900        5.9682438298        5.3301059623
       8
 i =        1, E =       -14.9560726442
  C         5.7648026723        5.0000876773        4.9999602331
  H         6.1655744433        5.7692417718        4.3269961897
  H         6.1656169736        4.0326951867        4.6704200146
  H         6.1656282592        5.1983258448        6.0025061744
  C         4.2351534392        4.9999746854        5.0000784542
  H         3.8343838345        4.8019379663        3.9974840747
  H         3.8344381495        4.2306836318        5.6728998804
  H         3.8343976370        5.9673107317        5.3298130556
       8
 i =        2, E =       -14.9560861450
  C         5.7640010214        5.0000740308        4.9999515455
  H         6.1668682857        5.7700441187        4.3262311851
  H         6.1670102647        4.0316856421        4.6700683469
  H         6.1670236267        5.1986332737        6.0035167918
  C         4.2360447314        4.9999858085        5.0000848422
  H         3.8329574757        4.8016242727        3.9965120035
  H         3.8331136674        4.2299146116        5.6736441961
  H         3.8329759993        5.9682861784        5.3301410118
       8
 i =        3, E =       -14.9560862017
  C         5.7638538961        5.0001215012        4.9999222833
  H         6.1668994112        5.7700099645        4.3262027317
  H         6.1670466315        4.0317698852        4.6701094119
  H         6.1670734094        5.1986635669        6.0034259309
  C         4.2361150275        4.9999363459        5.0001128522
  H         3.8329331099        4.8015773306        3.9965602733
  H         3.8331081570        4.2299192013        5.6737054348
  H         3.8329657900        5.9682438298        5.3301059623
       8
 i =        4, E =       -14.9560862017
  C         5.7638538961        5.0001215012        4.9999222833
  H         6.1668994112        5.7700099645        4.3262027317
  H         6.1670466315        4.0317698852        4.6701094119
  H         6.1670734094        5.1986635669        6.0034259309
  C         4.2361150275        4.9999363459        5.0001128522
  H         3.8329331099        4.8015773306        3.9965602733
  H         3.8331081570        4.2299192013        5.6737054348
  H         3.8329657900        5.9682438298        5.3301059623
       8
 i =        1, E =       -14.9560726442
  C         5.7648026723        5.0000876773        4.9999602331
  H         6.1655744433        5.7692417718        4.3269961897
  H         6.1656169736        4.0326951867        4.6704200146
  H         6.1656282592        5.1983258448        6.0025061744
  C         4.2351534392        4.9999746854        5.0000784542
  H         3.8343838345        4.8019379663        3.9974840747
  H         3.8344381495        4.2306836318        5.6728998804
  H         3.8343976370        5.9673107317        5.3298130556
       8
 i =        2, E =       -14.9560861450
  C         5.7640010214        5.0000740308        4.9999515455
  H         6.1668682857        5.7700441187        4.3262311851
  H         6.1670102647        4.0316856421        4.6700683469
  H         6.1670236267        5.1986332737        6.0035167918
  C         4.2360447314        4.9999858085        5.0000848422
  H         3.8329574757        4.8016242727        3.9965120035
  H         3.8331136674        4.2299146116        5.6736441961
  H         3.8329759993        5.9682861784        5.3301410118
       8
 i =        3, E =       -14.9560862017
  C         5.7638538961        5.0001215012        4.9999222833
  H         6.1668994112        5.7700099645        4.3262027317
  H         6.1670466315        4.0317698852        4.6701094119
  H         6.1670734094        5.1986635669        6.0034259309
  C         4.2361150275        4.9999363459        5.0001128522
  H         3.8329331099        4.8015773306        3.9965602733
  H         3.8331081570        4.2299192013        5.6737054348
  H         3.8329657900        5.9682438298        5.3301059623
       8
 i =        4, E =       -14.9560862017
  C         5.7638538961        5.0001215012        4.9999222833
  H         6.1668994112        5.7700099645        4.3262027317
  H         6.1670466315        4.0317698852        4.6701094119
  H         6.1670734094        5.1986635669        6.0034259309
  C         4.2361150275        4.9999363459        5.0001128522
  H         3.8329331099        4.8015773306        3.9965602733
  H         3.8331081570        4.2299192013        5.6737054348
  H         3.8329657900        5.9682438298        5.3301059623
       8
 i =        1, E =       -14.9560726442
  C         5.7648026723        5.0000876773        4.9999602331
  H         6.1655744433        5.7692417718        4.3269961897
  H         6.1656169736        4.0326951867        4.6704200146
  H         6.1656282592        5.1983258448        6.0025061744
  C         4.2351534392        4.9999746854        5.0000784542
  H         3.8343838345        4.8019379663        3.9974840747
  H         3.8344381495        4.2306836318        5.6728998804
  H         3.8343976370        5.9673107317        5.3298130556
       8
 i =        2, E =       -14.9560861450
  C         5.7640010214        5.0000740308        4.9999515455
  H         6.1668682857        5.7700441187        4.3262311851
  H         6.1670102647        4.0316856421        4.6700683469
  H         6.1670236267        5.1986332737        6.0035167918
  C         4.2360447314        4.9999858085        5.0000848422
  H         3.8329574757        4.8016242727        3.9965120035
  H         3.8331136674        4.2299146116        5.6736441961
  H         3.8329759993        5.9682861784        5.3301410118
       8
 i =        3, E =       -14.9560862017
  C         5.7638538961        5.0001215012        4.9999222833
  H         6.1668994112        5.7700099645        4.3262027317
  H         6.1670466315        4.0317698852        4.6701094119
  H         6.1670734094        5.1986635669        6.0034259309
  C         4.2361150275        4.9999363459        5.0001128522
  H         3.8329331099        4.8015773306        3.9965602733
  H         3.8331081570        4.2299192013        5.6737054348
  H         3.8329657900        5.9682438298        5.3301059623
       8
 i =        4, E =       -14.9560862017
  C         5.7638538961        5.0001215012        4.9999222833
  H         6.1668994112        5.7700099645        4.3262027317
  H         6.1670466315        4.0317698852        4.6701094119
  H         6.1670734094        5.1986635669        6.0034259309
  C         4.2361150275        4.9999363459        5.0001128522
  H         3.8329331099        4.8015773306        3.9965602733
  H         3.8331081570        4.2299192013        5.6737054348
  H         3.8329657900        5.9682438298        5.3301059623
       8
 i =        1, E =       -14.9507523661
  C         5.7648569107        5.0000000006        5.2483531240
  C         4.2351431054        5.0000000012        5.2483531244
  H         3.8475712729        4.9999999978        4.2358888788
  H         3.8477229555        5.8770563789        5.7540118119
  H         3.8477229574        4.1229436218        5.7540118085
  H         6.1524287355        5.0000000009        4.2358888717
  H         6.1522770529        5.8770563836        5.7540118181
  H         6.1522770509        4.1229436145        5.7540118092
       8
 i =        2, E =       -14.9518726437
  C         5.7680275162        5.0000000014        5.2489664710
  C         4.2319725151        5.0000000015        5.2489664712
  H         3.8225362018        4.9999999976        4.2303027488
  H         3.8219919753        5.8820816479        5.7576163677
  H         3.8219919798        4.1179183527        5.7576163634
  H         6.1774638028        5.0000000010        4.2303027301
  H         6.1780080298        5.8820816624        5.7576163798
  H         6.1780080246        4.1179183348        5.7576163698
       8
 i =        3, E =       -14.9518877341
  C         5.7694775569        5.0000000015        5.2494415509
  C         4.2305224592        5.0000000018        5.2494415512
  H         3.8199909164        4.9999999977        4.2302092609
  H         3.8192505978        5.8825051599        5.7582837288
  H         3.8192506039        4.1174948406        5.7582837241
  H         6.1800090943        5.0000000012        4.2302092486
  H         6.1807494131        5.8825051682        5.7582837376
  H         6.1807494066        4.1174948282        5.7582837270
       8
 i =        4, E =       -14.9518908301
  C         5.7704494966        5.0000000017        5.2500460448
  C         4.2295505345        5.0000000019        5.2500460451
  H         3.8192832727        4.9999999980        4.2307100411
  H         3.8183895498        5.8825495119        5.7588647667
  H         3.8183895571        4.1174504883        5.7588647617
  H         6.1807167342        5.0000000015        4.2307100216
  H         6.1816104575        5.8825495261        5.7588647793
  H         6.1816104498        4.1174504696        5.7588647678
       8
 i =        5, E =       -14.9518908301
  C         5.7704494966        5.0000000017        5.2500460448
  C         4.2295505345        5.0000000019        5.2500460451
  H         3.8192832727        4.9999999980        4.2307100411
  H         3.8183895498        5.8825495119        5.7588647667
  H         3.8183895571        4.1174504883        5.7588647617
  H         6.1807167342        5.0000000015        4.2307100216
  H         6.1816104575        5.8825495261        5.7588647793
  H         6.1816104498        4.1174504696        5.7588647678
       8
 i =        1, E =       -14.9507523661
  C         5.7648569107        5.0000000006        5.2483531240
  C         4.2351431054        5.0000000012        5.2483531244
  H         3.8475712729        4.9999999978        4.2358888788
  H         3.8477229555        5.8770563789        5.7540118119
  H         3.8477229574        4.1229436218        5.7540118085
  H         6.1524287355        5.0000000009        4.2358888717
  H         6.1522770529        5.8770563836        5.7540118181
  H         6.1522770509        4.1229436145        5.7540118092
       8
 i =        2, E =       -14.9518726437
  C         5.7680275162        5.0000000014        5.2489664710
  C         4.2319725151        5.0000000015        5.2489664712
  H         3.8225362018        4.9999999976        4.2303027488
  H         3.8219919753        5.8820816479        5.7576163677
  H         3.8219919798        4.1179183527        5.7576163634
  H         6.1774638028        5.0000000010        4.2303027301
  H         6.1780080298        5.8820816624        5.7576163798
  H         6.1780080246        4.1179183348        5.7576163698
       8
 i =        3, E =       -14.9518877341
  C         5.7694775569        5.0000000015        5.2494415509
  C         4.2305224592        5.0000000018        5.2494415512
  H         3.8199909164        4.9999999977        4.2302092609
  H         3.8192505978        5.8825051599        5.7582837288
  H         3.8192506039        4.1174948406        5.7582837241
  H         6.1800090943        5.0000000012        4.2302092486
  H         6.1807494131        5.8825051682        5.7582837376
  H         6.1807494066        4.1174948282        5.7582837270
       8
 i =        4, E =       -14.9518908301
  C         5.7704494966        5.0000000017        5.2500460448
  C         4.2295505345        5.0000000019        5.2500460451
  H         3.8192832727        4.9999999980        4.2307100411
  H         3.8183895498        5.8825495119        5.7588647667
  H         3.8183895571        4.1174504883        5.7588647617
  H         6.1807167342        5.0000000015        4.2307100216
  H         6.1816104575        5.8825495261        5.7588647793
  H         6.1816104498        4.1174504696        5.7588647678
       8
 i =        5, E =       -14.9518908301
  C         5.7704494966        5.0000000017        5.2500460448
  C         4.2295505345        5.0000000019        5.2500460451
  H         3.8192832727        4.9999999980        4.2307100411
  H         3.8183895498        5.8825495119        5.7588647667
  H         3.8183895571        4.1174504883        5.7588647617
  H         6.1807167342        5.0000000015        4.2307100216
  H         6.1816104575        5.8825495261        5.7588647793
  H         6.1816104498        4.1174504696        5.7588647678
       8
 i =        1, E =       -14.9502198382
  C         5.7689592901        4.9980987524        5.2396576641
  C         4.2354185157        4.9957973839        5.2387197082
  H         3.8069134509        4.9928844656        4.2528734803
  H         3.8283001829        5.8630906305        5.7418880957
  H         3.8105551868        4.1347922992        5.7471443380
  H         6.1441839184        4.9955306564        4.2088034903
  H         6.1129986710        5.9008074474        5.7475777334
  H         6.1418758982        4.1104903928        5.7673927556
       8
 i =        2, E =       -14.9518159835
  C         5.7448026146        4.9991754471        5.2407591730
  C         4.2077112656        4.9961642573        5.2425004657
  H         3.7978914474        4.9918593012        4.2254628923
  H         3.8127707270        5.8833754414        5.7535105405
  H         3.8060646534        4.1142987647        5.7582246174
  H         6.1646644199        4.9929345557        4.2268899935
  H         6.1487522110        5.8868651467        5.7416734673
  H         6.1667958049        4.1276291272        5.7567923205
       8
 i =        3, E =       -14.9518786919
  C         5.7508234143        5.0001585975        5.2412076354
  C         4.2114978047        4.9954962340        5.2436870145
  H         3.7952141849        4.9929662839        4.2269443011
  H         3.8044488026        5.8811381009        5.7520006920
  H         3.8019534434        4.1152506696        5.7585507990
  H         6.1638159089        4.9932350526        4.2232986331
  H         6.1545697500        5.8890463430        5.7431311339
  H         6.1664407959        4.1254285480        5.7591079734
       8
 i =        4, E =       -14.9518869865
  C         5.7516410641        5.0003092143        5.2421857329
  C         4.2107265322        4.9965033809        5.2446038646
  H         3.7959287960        4.9927460293        4.2270922228
  H         3.8009483895        5.8808111682        5.7524619779
  H         3.8018670439        4.1156114072        5.7584086418
  H         6.1624298866        4.9931663299        4.2230451009
  H         6.1576849323        5.8894090874        5.7430799203
  H         6.1663774804        4.1246169929        5.7597257386
       8
 i =        5, E =       -14.9518906384
  C         5.7516587803        5.0011186239        5.2432979508
  C         4.2094862556        4.9971763310        5.2460461776
  H         3.7973941639        4.9929156718        4.2276606718
  H         3.7978888536        5.8804344449        5.7529099585
  H         3.8017940337        4.1155629923        5.7586970318
  H         6.1606158207        4.9925271309        4.2234552535
  H         6.1608693448        5.8895154738        5.7433681148
  H         6.1655959965        4.1244965342        5.7600822823
       8
 i =        6, E =       -14.9518913751
  C         5.7513248232        5.0010716679        5.2439614810
  C         4.2091816535        4.9975674281        5.2466516461
  H         3.7977480493        4.9930419586        4.2281091737
  H         3.7970629232        5.8804160531        5.7534631960
  H         3.8018583840        4.1156196357        5.7589137678
  H         6.1597693917        4.9923117506        4.2240781558
  H         6.1612709547        5.8893718150        5.7434720586
  H         6.1652982952        4.1245482604        5.7605705336
       8
 i =        7, E =       -14.9518913749
  C         5.7513248232        5.0010716679        5.2439614810
  C         4.2091816535        4.9975674281        5.2466516461
  H         3.7977480493        4.9930419586        4.2281091737
  H         3.7970629232        5.8804160531        5.7534631960
  H         3.8018583840        4.1156196357        5.7589137678
  H         6.1597693917        4.9923117506        4.2240781558
  H         6.1612709547        5.8893718150        5.7434720586
  H         6.1652982952        4.1245482604        5.7605705336
       8
 i =        1, E =       -14.9502200397
  C         5.7687817483        4.9981342439        5.2395874031
  C         4.2355731868        4.9959232455        5.2386524514
  H         3.8069877152        4.9930094965        4.2528578948
  H         3.8283761938        5.8632159284        5.7418789997
  H         3.8106359951        4.1348796957        5.7470382273
  H         6.1441881060        4.9955740308        4.2087561326
  H         6.1129091171        5.9008721176        5.7474222726
  H         6.1419093169        4.1105854744        5.7674179295
       8
 i =        2, E =       -14.9518156479
  C         5.7447926367        4.9992513987        5.2407025292
  C         4.2077854015        4.9962529622        5.2424434358
  H         3.7979410704        4.9919895563        4.2254011670
  H         3.8128582517        5.8834634595        5.7534893120
  H         3.8061068029        4.1143689046        5.7581428402
  H         6.1646381812        4.9929441227        4.2268095330
  H         6.1487003693        5.8869928799        5.7415632086
  H         6.1667734959        4.1277199815        5.7567974652
       8
 i =        3, E =       -14.9518785448
  C         5.7508204096        5.0002363083        5.2411456741
  C         4.2115289649        4.9955747358        5.2436304324
  H         3.7952472922        4.9930997979        4.2268722453
  H         3.8045085514        5.8812183982        5.7519791722
  H         3.8019751820        4.1153144633        5.7584750585
  H         6.1638200509        4.9932415205        4.2232316758
  H         6.1545710812        5.8891583635        5.7430134686
  H         6.1664425656        4.1255387538        5.7591074117
       8
 i =        4, E =       -14.9518869339
  C         5.7516585912        5.0003776477        5.2421244135
  C         4.2107520459        4.9965893596        5.2445483035
  H         3.7959472778        4.9928756110        4.2270280264
  H         3.8009718733        5.8808820916        5.7524405814
  H         3.8018778692        4.1156817401        5.7583209923