 Entering Gaussian System, Link 0=g09
 Input=temp.com
 Output=temp.log
 Initial command:
 /global/software/gaussian/g09.e01/l1.exe "/scratch/10163993.yak.local/Gau-18761.inp" -scrdir="/scratch/10163993.yak.local/"
 Entering Link 1 = /global/software/gaussian/g09.e01/l1.exe PID=     18762.
  
 Copyright (c) 1988,1990,1992,1993,1995,1998,2003,2009,2015,
            Gaussian, Inc.  All Rights Reserved.
  
 This is part of the Gaussian(R) 09 program.  It is based on
 the Gaussian(R) 03 system (copyright 2003, Gaussian, Inc.),
 the Gaussian(R) 98 system (copyright 1998, Gaussian, Inc.),
 the Gaussian(R) 94 system (copyright 1995, Gaussian, Inc.),
 the Gaussian 92(TM) system (copyright 1992, Gaussian, Inc.),
 the Gaussian 90(TM) system (copyright 1990, Gaussian, Inc.),
 the Gaussian 88(TM) system (copyright 1988, Gaussian, Inc.),
 the Gaussian 86(TM) system (copyright 1986, Carnegie Mellon
 University), and the Gaussian 82(TM) system (copyright 1983,
 Carnegie Mellon University). Gaussian is a federally registered
 trademark of Gaussian, Inc.
  
 This software contains proprietary and confidential information,
 including trade secrets, belonging to Gaussian, Inc.
  
 This software is provided under written license and may be
 used, copied, transmitted, or stored only in accord with that
 written license.
  
 The following legend is applicable only to US Government
 contracts under FAR:
  
                    RESTRICTED RIGHTS LEGEND
  
 Use, reproduction and disclosure by the US Government is
 subject to restrictions as set forth in subparagraphs (a)
 and (c) of the Commercial Computer Software - Restricted
 Rights clause in FAR 52.227-19.
  
 Gaussian, Inc.
 340 Quinnipiac St., Bldg. 40, Wallingford CT 06492
  
  
 ---------------------------------------------------------------
 Warning -- This program may not be used in any manner that
 competes with the business of Gaussian, Inc. or will provide
 assistance to any competitor of Gaussian, Inc.  The licensee
 of this program is prohibited from giving any competitor of
 Gaussian, Inc. access to this program.  By using this program,
 the user acknowledges that Gaussian, Inc. is engaged in the
 business of creating and licensing software in the field of
 computational chemistry and represents and warrants to the
 licensee that it is not a competitor of Gaussian, Inc. and that
 it will not use this program in any manner prohibited above.
 ---------------------------------------------------------------
  

 Cite this work as:
 Gaussian 09, Revision E.01,
 M. J. Frisch, G. W. Trucks, H. B. Schlegel, G. E. Scuseria, 
 M. A. Robb, J. R. Cheeseman, G. Scalmani, V. Barone, B. Mennucci, 
 G. A. Petersson, H. Nakatsuji, M. Caricato, X. Li, H. P. Hratchian, 
 A. F. Izmaylov, J. Bloino, G. Zheng, J. L. Sonnenberg, M. Hada, 
 M. Ehara, K. Toyota, R. Fukuda, J. Hasegawa, M. Ishida, T. Nakajima, 
 Y. Honda, O. Kitao, H. Nakai, T. Vreven, J. A. Montgomery, Jr., 
 J. E. Peralta, F. Ogliaro, M. Bearpark, J. J. Heyd, E. Brothers, 
 K. N. Kudin, V. N. Staroverov, T. Keith, R. Kobayashi, J. Normand, 
 K. Raghavachari, A. Rendell, J. C. Burant, S. S. Iyengar, J. Tomasi, 
 M. Cossi, N. Rega, J. M. Millam, M. Klene, J. E. Knox, J. B. Cross, 
 V. Bakken, C. Adamo, J. Jaramillo, R. Gomperts, R. E. Stratmann, 
 O. Yazyev, A. J. Austin, R. Cammi, C. Pomelli, J. W. Ochterski, 
 R. L. Martin, K. Morokuma, V. G. Zakrzewski, G. A. Voth, 
 P. Salvador, J. J. Dannenberg, S. Dapprich, A. D. Daniels, 
 O. Farkas, J. B. Foresman, J. V. Ortiz, J. Cioslowski, 
 and D. J. Fox, Gaussian, Inc., Wallingford CT, 2013.
 
 ******************************************
 Gaussian 09:  ES64L-G09RevE.01 30-Nov-2015
                16-Oct-2016 
 ******************************************
 %chk=temp.chk
 -----------------------
 #rhf/3-21g nosymm force
 -----------------------
 1/10=7,30=1,38=1/1,3;
 2/12=2,15=1,17=6,18=5,40=1/2;
 3/5=5,11=1,16=1,25=1,30=1,71=1,116=1/1,2,3;
 4//1;
 5/5=2,38=5/2;
 6/7=2,8=2,9=2,10=2,28=1/1;
 7/29=1,30=1/1,2,3,16;
 1/10=7,30=1/3;
 99//99;
 ----
 name
 ----
 Symbolic Z-matrix:
 Charge =  0 Multiplicity = 1
 C                     0.43738   0.34353   0.32212 
 H                     1.59201   0.65143   0.55783 
 H                     1.20226  -0.77559  -0.1934 
 H                     0.46098  -0.43061   1.92774 
 C                    -1.15693  -0.06291  -0.8056 
 H                    -0.90759   0.03848  -2.00523 
 H                    -0.75248  -0.71489   0.14125 
 H                    -0.87649   0.95069   0.05528 
 

 GradGradGradGradGradGradGradGradGradGradGradGradGradGradGradGradGradGrad
 Berny optimization.
 Initialization pass.
 Trust Radius=3.00D-01 FncErr=1.00D-07 GrdErr=1.00D-07
 Number of steps in this run=      2 maximum allowed number of steps=      2.
 GradGradGradGradGradGradGradGradGradGradGradGradGradGradGradGradGradGrad

                          Input orientation:                          
 ---------------------------------------------------------------------
 Center     Atomic      Atomic             Coordinates (Angstroms)
 Number     Number       Type             X           Y           Z
 ---------------------------------------------------------------------
      1          6           0        0.437377    0.343531    0.322123
      2          1           0        1.592011    0.651430    0.557828
      3          1           0        1.202264   -0.775588   -0.193403
      4          1           0        0.460982   -0.430613    1.927742
      5          6           0       -1.156926   -0.062909   -0.805599
      6          1           0       -0.907590    0.038475   -2.005232
      7          1           0       -0.752478   -0.714891    0.141251
      8          1           0       -0.876486    0.950694    0.055281
 ---------------------------------------------------------------------
                    Distance matrix (angstroms):
                    1          2          3          4          5
     1  C    0.000000
     2  H    1.218006   0.000000
     3  H    1.450257   1.659105   0.000000
     4  H    1.782657   2.080074   2.273271   0.000000
     5  C    1.994681   3.150535   2.539384   3.197496   0.000000
     6  H    2.705286   3.632216   2.897742   4.190622   1.229458
     7  H    1.602724   2.745359   1.984110   2.178267   1.218681
     8  H    1.471764   2.536847   2.713503   2.683829   1.359100
                    6          7          8
     6  H    0.000000
     7  H    2.280134   0.000000
     8  H    2.253625   1.672406   0.000000
 Symmetry turned off by external request.
 Stoichiometry    C2H6
 Framework group  C1[X(C2H6)]
 Deg. of freedom    18
 Full point group                 C1      NOp   1
 Rotational constants (GHZ):     64.9600209     13.2214048     12.8051003
 Standard basis: 3-21G (6D, 7F)
    30 basis functions,    48 primitive gaussians,    30 cartesian basis functions
     9 alpha electrons        9 beta electrons
       nuclear repulsion energy        35.5620479835 Hartrees.
 NAtoms=    8 NActive=    8 NUniq=    8 SFac= 1.00D+00 NAtFMM=   60 NAOKFM=F Big=F
 Integral buffers will be    131072 words long.
 Raffenetti 1 integral format.
 Two-electron integral symmetry is turned off.
 One-electron integrals computed using PRISM.
 NBasis=    30 RedAO= T EigKep=  5.46D-02  NBF=    30
 NBsUse=    30 1.00D-06 EigRej= -1.00D+00 NBFU=    30
 ExpMin= 1.83D-01 ExpMax= 1.72D+02 ExpMxC= 1.72D+02 IAcc=1 IRadAn=         1 AccDes= 0.00D+00
 Harris functional with IExCor=  205 and IRadAn=       1 diagonalized for initial guess.
 HarFok:  IExCor=  205 AccDes= 0.00D+00 IRadAn=         1 IDoV= 1 UseB2=F ITyADJ=14
 ICtDFT=  3500011 ScaDFX=  1.000000  1.000000  1.000000  1.000000
 FoFCou: FMM=F IPFlag=           0 FMFlag=      100000 FMFlg1=           0
         NFxFlg=           0 DoJE=T BraDBF=F KetDBF=T FulRan=T
         wScrn=  0.000000 ICntrl=     500 IOpCl=  0 I1Cent=   200000004 NGrid=           0
         NMat0=    1 NMatS0=      1 NMatT0=    0 NMatD0=    1 NMtDS0=    0 NMtDT0=    0
 Symmetry not used in FoFCou.
 Keep R1 ints in memory in canonical form, NReq=939511.
 Requested convergence on RMS density matrix=1.00D-08 within 128 cycles.
 Requested convergence on MAX density matrix=1.00D-06.
 Requested convergence on             energy=1.00D-06.
 No special actions if energy rises.
 SCF Done:  E(RHF) =  -78.3009211530     A.U. after   14 cycles
            NFock= 14  Conv=0.60D-08     -V/T= 2.0143

 **********************************************************************
            Population analysis using the SCF density.

 **********************************************************************

 Alpha  occ. eigenvalues --  -11.27125 -11.25161  -0.97541  -0.79347  -0.62146
 Alpha  occ. eigenvalues --   -0.54005  -0.41691  -0.39156  -0.33627
 Alpha virt. eigenvalues --    0.08448   0.13989   0.16020   0.23155   0.31849
 Alpha virt. eigenvalues --    0.33036   0.34644   0.95950   0.97911   1.00636
 Alpha virt. eigenvalues --    1.06541   1.10796   1.11958   1.14407   1.19748
 Alpha virt. eigenvalues --    1.22031   1.25574   1.31047   1.47414   1.78960
 Alpha virt. eigenvalues --    1.83519
          Condensed to atoms (all electrons):
               1          2          3          4          5          6
     1  C    6.016646   0.339744   0.292846   0.256631  -0.114691   0.005898
     2  H    0.339744   0.482698  -0.057622  -0.028984   0.002288  -0.000371
     3  H    0.292846  -0.057622   0.733909  -0.005312  -0.028267  -0.002174
     4  H    0.256631  -0.028984  -0.005312   0.788334  -0.014045   0.000159
     5  C   -0.114691   0.002288  -0.028267  -0.014045   5.737513   0.325088
     6  H    0.005898  -0.000371  -0.002174   0.000159   0.325088   0.463909
     7  H   -0.057655   0.003141  -0.023474   0.011190   0.337212  -0.007851
     8  H    0.007642  -0.001393   0.005134   0.002920   0.260013  -0.011853
               7          8
     1  C   -0.057655   0.007642
     2  H    0.003141  -0.001393
     3  H   -0.023474   0.005134
     4  H    0.011190   0.002920
     5  C    0.337212   0.260013
     6  H   -0.007851  -0.011853
     7  H    0.464952  -0.067164
     8  H   -0.067164   0.453938
 Mulliken charges:
               1
     1  C   -0.747062
     2  H    0.260499
     3  H    0.084960
     4  H   -0.010893
     5  C   -0.505112
     6  H    0.227196
     7  H    0.339649
     8  H    0.350763
 Sum of Mulliken charges =  -0.00000
 Mulliken charges with hydrogens summed into heavy atoms:
               1
     1  C   -0.412496
     5  C    0.412496
 Electronic spatial extent (au):  <R**2>=            150.9415
 Charge=             -0.0000 electrons
 Dipole moment (field-independent basis, Debye):
    X=              0.8498    Y=             -0.3383    Z=             -0.9969  Tot=              1.3529
 Quadrupole moment (field-independent basis, Debye-Ang):
   XX=            -18.3617   YY=            -17.9261   ZZ=            -15.3653
   XY=              0.4801   XZ=              0.8151   YZ=             -0.1199
 Traceless Quadrupole moment (field-independent basis, Debye-Ang):
   XX=             -1.1440   YY=             -0.7084   ZZ=              1.8524
   XY=              0.4801   XZ=              0.8151   YZ=             -0.1199
 Octapole moment (field-independent basis, Debye-Ang**2):
  XXX=             19.3658  YYY=             -4.0145  ZZZ=             -2.1123  XYY=              3.1612
  XXY=             -1.9829  XXZ=              2.8336  XZZ=              0.8447  YZZ=             -2.1196
  YYZ=              2.1056  XYZ=             -0.5658
 Hexadecapole moment (field-independent basis, Debye-Ang**3):
 XXXX=           -110.0308 YYYY=            -37.5019 ZZZZ=            -72.4827 XXXY=              3.1742
 XXXZ=            -25.8668 YYYX=             -2.9406 YYYZ=             -1.1140 ZZZX=            -19.7436
 ZZZY=             -3.3341 XXYY=            -24.3981 XXZZ=            -29.7924 YYZZ=            -22.1584
 XXYZ=              2.1663 YYXZ=            -10.3497 ZZXY=             -0.2188
 N-N= 3.556204798349D+01 E-N=-2.517245425721D+02  KE= 7.719456836791D+01
 Calling FoFJK, ICntrl=      2127 FMM=F ISym2X=0 I1Cent= 0 IOpClX= 0 NMat=1 NMatS=1 NMatT=0.
 -------------------------------------------------------------------
 Center     Atomic                   Forces (Hartrees/Bohr)
 Number     Number              X              Y              Z
 -------------------------------------------------------------------
      1        6           0.190527211   -0.110970822    0.067345360
      2        1          -0.069479687    0.032976385   -0.016263739
      3        1          -0.049723136    0.052390978    0.024486364
      4        1          -0.017064386    0.037009453   -0.082269023
      5        6           0.033242537    0.045191256    0.048559351
      6        1          -0.000858736   -0.017084529    0.073691296
      7        1          -0.058351375   -0.024753255   -0.071144791
      8        1          -0.028292428   -0.014759465   -0.044404817
 -------------------------------------------------------------------
 Cartesian Forces:  Max     0.190527211 RMS     0.063532610

 GradGradGradGradGradGradGradGradGradGradGradGradGradGradGradGradGradGrad
 Berny optimization.
 Search for a local minimum.
 Step number   1 out of a maximum of    2
 All quantities printed in internal units (Hartrees-Bohrs-Radians)
 Second derivative matrix not updated -- first step.
 ITU=  0
     Eigenvalues ---   -0.00000  -0.00000   0.00000   0.00000   0.00023
     Eigenvalues ---    0.06382   0.09389   0.11991   0.25295   0.34831
     Eigenvalues ---    0.38320   0.43049   0.57869   0.70927   0.82897
     Eigenvalues ---    0.90503   0.97473   1.00000
 Eigenvalue     1 is  -7.77D-16 should be greater than     0.000000 Eigenvector:
                          Z2        Y1        X7        Y2        Y7
   1                    0.50388   0.42931  -0.36274  -0.33420  -0.27428
                          Z1        Y8        X2        X1        Z8
   1                   -0.25264  -0.23778   0.22264   0.17347   0.13401
 Eigenvalue     2 is  -2.22D-16 should be greater than     0.000000 Eigenvector:
                          X6        X8        Z2        X1        Z8
   1                    0.42997   0.40441  -0.34881  -0.33197   0.27775
                          X2        Z1        X7        Y7        X5
   1                   -0.26959  -0.22198  -0.21031  -0.19614   0.18727
 Eigenvalue     3 is   0.00D+00 Eigenvector:
                          Z2        Z1        Y2        Y1        X2
   1                    0.53704  -0.46789   0.42285  -0.33525  -0.31493
                          Z7        Y7        Y8        Z6        Z5
   1                    0.16492   0.11698   0.11649   0.11278   0.11265
 Eigenvalue     4 is   6.66D-16 Eigenvector:
                          X7        Y2        X1        Z1        Z2
   1                    0.60436  -0.55291  -0.28043  -0.24232   0.18848
                          X2        X5        Y7        Y1        Y8
   1                   -0.18357   0.17129   0.16482   0.14012   0.11312
 Quadratic step=1.510D+03 exceeds max=3.000D-01 adjusted using Lamda=-7.236D-01.
 Angle between NR and scaled steps=  45.74 degrees.
 Angle between quadratic step and forces=  25.89 degrees.
 Linear search not attempted -- first point.
 B after Tr=     0.022528   -0.010382    0.010795
         Rot=    0.999989   -0.000935   -0.000982    0.004382 Ang=  -0.53 deg.
 Variable       Old X    -DE/DX   Delta X   Delta X   Delta X     New X
                                 (Linear)    (Quad)   (Total)
    X1        0.82652   0.19053   0.00000   0.13718   0.16583   0.99235
    Y1        0.64918  -0.11097   0.00000  -0.09315  -0.11324   0.53594
    Z1        0.60872   0.06735   0.00000   0.05233   0.06226   0.67098
    X2        3.00847  -0.06948   0.00000  -0.08059  -0.04441   2.96406
    Y2        1.23102   0.03298   0.00000   0.11006   0.07203   1.30305
    Z2        1.05414  -0.01626   0.00000  -0.02084  -0.01332   1.04082
    X3        2.27195  -0.04972   0.00000  -0.03294  -0.02363   2.24832
    Y3       -1.46565   0.05239   0.00000   0.04638   0.01710  -1.44855
    Z3       -0.36548   0.02449   0.00000   0.01468   0.01842  -0.34706
    X4        0.87113  -0.01706   0.00000  -0.02091   0.00183   0.87296
    Y4       -0.81374   0.03701   0.00000   0.04003   0.01548  -0.79826
    Z4        3.64290  -0.08227   0.00000  -0.05009  -0.04242   3.60048
    X5       -2.18627   0.03324   0.00000  -0.01246   0.00648  -2.17980
    Y5       -0.11888   0.04519   0.00000   0.03706   0.04880  -0.07008
    Z5       -1.52236   0.04856   0.00000   0.00760   0.02258  -1.49978
    X6       -1.71510  -0.00086   0.00000  -0.01241   0.00329  -1.71180
    Y6        0.07271  -0.01708   0.00000  -0.02909  -0.01734   0.05537
    Z6       -3.78934   0.07369   0.00000   0.06606   0.08036  -3.70898
    X7       -1.42198  -0.05835   0.00000  -0.08748  -0.07663  -1.49861
    Y7       -1.35095  -0.02475   0.00000  -0.02824  -0.02568  -1.37663
    Z7        0.26693  -0.07114   0.00000  -0.08652  -0.07531   0.19161
    X8       -1.65632  -0.02829   0.00000  -0.07116  -0.03276  -1.68908
    Y8        1.79655  -0.01476   0.00000  -0.00177   0.00285   1.79940
    Z8        0.10447  -0.04440   0.00000  -0.07011  -0.05257   0.05190
         Item               Value     Threshold  Converged?
 Maximum Force            0.190527     0.000450     NO 
 RMS     Force            0.063533     0.000300     NO 
 Maximum Displacement     0.165832     0.001800     NO 
 RMS     Displacement     0.057923     0.001200     NO 
 Predicted change in Energy=-7.705402D-02
 GradGradGradGradGradGradGradGradGradGradGradGradGradGradGradGradGradGrad
 1\1\GINC-N159\Force\RHF\3-21G\C2H6\ROOT\16-Oct-2016\0\\#rhf/3-21g nosy
 mm force\\name\\0,1\C,0.4373769428,0.3435307126,0.3221227553\H,1.59201
 13419,0.6514299677,0.5578279959\H,1.2022636098,-0.7755879872,-0.193402
 606\H,0.4609817971,-0.4306130497,1.9277415964\C,-1.1569256934,-0.06290
 93471,-0.8055992646\H,-0.9075898424,0.0384750822,-2.0052320164\H,-0.75
 24777115,-0.7148907994,0.1412512187\H,-0.8764864536,0.9506944109,0.055
 2813391\\Version=ES64L-G09RevE.01\HF=-78.3009212\RMSD=6.013e-09\RMSF=6
 .353e-02\Dipole=0.3343228,-0.1331102,-0.3922017\Quadrupole=-0.850538,-
 0.5266783,1.3772163,0.356916,0.6059822,-0.0891654\PG=C01 [X(C2H6)]\\@


 IT PROBABLY IS NOT POSSIBLE FOR A SCIENTIST TO INTERROGATE NATURE 
 FROM A WHOLLY DISINTERESTED VIEWPOINT.
 EVEN IF HE HAS NO PARTICULAR AXE TO GRIND, HE IS LIKELY TO HAVE 
 A DISTINCTIVE WAY OF VIEWING NATURE.

                                                   -- JOHN LOSEE
 Job cpu time:       0 days  0 hours  0 minutes  1.2 seconds.
 File lengths (MBytes):  RWF=      5 Int=      0 D2E=      0 Chk=      1 Scr=      1
 Normal termination of Gaussian 09 at Sun Oct 16 14:11:41 2016.
