 Entering Gaussian System, Link 0=g09
 Initial command:
 /global/software/gaussian/g16.a03/l1.exe "/scratch/10711855.yak.local/Gau-16148.inp" -scrdir="/scratch/10711855.yak.local/"
 Entering Link 1 = /global/software/gaussian/g16.a03/l1.exe PID=     16149.
  
 Copyright (c) 1988,1990,1992,1993,1995,1998,2003,2009,2016,
            Gaussian, Inc.  All Rights Reserved.
  
 This is part of the Gaussian(R) 16 program.  It is based on
 the Gaussian(R) 09 system (copyright 2009, Gaussian, Inc.),
 the Gaussian(R) 03 system (copyright 2003, Gaussian, Inc.),
 the Gaussian(R) 98 system (copyright 1998, Gaussian, Inc.),
 the Gaussian(R) 94 system (copyright 1995, Gaussian, Inc.),
 the Gaussian 92(TM) system (copyright 1992, Gaussian, Inc.),
 the Gaussian 90(TM) system (copyright 1990, Gaussian, Inc.),
 the Gaussian 88(TM) system (copyright 1988, Gaussian, Inc.),
 the Gaussian 86(TM) system (copyright 1986, Carnegie Mellon
 University), and the Gaussian 82(TM) system (copyright 1983,
 Carnegie Mellon University). Gaussian is a federally registered
 trademark of Gaussian, Inc.
  
 This software contains proprietary and confidential information,
 including trade secrets, belonging to Gaussian, Inc.
  
 This software is provided under written license and may be
 used, copied, transmitted, or stored only in accord with that
 written license.
  
 The following legend is applicable only to US Government
 contracts under FAR:
  
                    RESTRICTED RIGHTS LEGEND
  
 Use, reproduction and disclosure by the US Government is
 subject to restrictions as set forth in subparagraphs (a)
 and (c) of the Commercial Computer Software - Restricted
 Rights clause in FAR 52.227-19.
  
 Gaussian, Inc.
 340 Quinnipiac St., Bldg. 40, Wallingford CT 06492
  
  
 ---------------------------------------------------------------
 Warning -- This program may not be used in any manner that
 competes with the business of Gaussian, Inc. or will provide
 assistance to any competitor of Gaussian, Inc.  The licensee
 of this program is prohibited from giving any competitor of
 Gaussian, Inc. access to this program.  By using this program,
 the user acknowledges that Gaussian, Inc. is engaged in the
 business of creating and licensing software in the field of
 computational chemistry and represents and warrants to the
 licensee that it is not a competitor of Gaussian, Inc. and that
 it will not use this program in any manner prohibited above.
 ---------------------------------------------------------------
  

 Cite this work as:
 Gaussian 16, Revision A.03,
 M. J. Frisch, G. W. Trucks, H. B. Schlegel, G. E. Scuseria, 
 M. A. Robb, J. R. Cheeseman, G. Scalmani, V. Barone, 
 G. A. Petersson, H. Nakatsuji, X. Li, M. Caricato, A. V. Marenich, 
 J. Bloino, B. G. Janesko, R. Gomperts, B. Mennucci, H. P. Hratchian, 
 J. V. Ortiz, A. F. Izmaylov, J. L. Sonnenberg, D. Williams-Young, 
 F. Ding, F. Lipparini, F. Egidi, J. Goings, B. Peng, A. Petrone, 
 T. Henderson, D. Ranasinghe, V. G. Zakrzewski, J. Gao, N. Rega, 
 G. Zheng, W. Liang, M. Hada, M. Ehara, K. Toyota, R. Fukuda, 
 J. Hasegawa, M. Ishida, T. Nakajima, Y. Honda, O. Kitao, H. Nakai, 
 T. Vreven, K. Throssell, J. A. Montgomery, Jr., J. E. Peralta, 
 F. Ogliaro, M. J. Bearpark, J. J. Heyd, E. N. Brothers, K. N. Kudin, 
 V. N. Staroverov, T. A. Keith, R. Kobayashi, J. Normand, 
 K. Raghavachari, A. P. Rendell, J. C. Burant, S. S. Iyengar, 
 J. Tomasi, M. Cossi, J. M. Millam, M. Klene, C. Adamo, R. Cammi, 
 J. W. Ochterski, R. L. Martin, K. Morokuma, O. Farkas, 
 J. B. Foresman, and D. J. Fox, Gaussian, Inc., Wallingford CT, 2016.
 
 ******************************************
 Gaussian 16:  ES64L-G16RevA.03 25-Dec-2016
                29-May-2017 
 ******************************************
 %mem=8000MB
 %nproc=12
 Will use up to   12 processors via shared memory.
 ---------------------
 #rhf/3-21g nosymm opt
 ---------------------
 1/18=20,19=15,38=1/1,3;
 2/9=110,12=2,15=1,17=6,18=5,40=1/2;
 3/5=5,11=1,25=1,30=1,71=1,116=1/1,2,3;
 4//1;
 5/5=2,38=5/2;
 6/7=2,8=2,9=2,10=2,28=1/1;
 7/30=1/1,2,3,16;
 1/18=20,19=15/3(2);
 2/9=110,15=1/2;
 99//99;
 2/9=110,15=1/2;
 3/5=5,11=1,25=1,30=1,71=1,116=1/1,2,3;
 4/5=5,16=3,69=1/1;
 5/5=2,38=5/2;
 7/30=1/1,2,3,16;
 1/18=20,19=15/3(-5);
 2/9=110,15=1/2;
 6/7=2,8=2,9=2,10=2,19=2,28=1/1;
 99/9=1/99;
 ----
 name
 ----
 Symbolic Z-matrix:
 Charge =  0 Multiplicity = 1
 6                     0.7028   -0.20563  -0.26294 
 1                     1.45475  -0.13139   0.54317 
 1                     1.02101   0.45232  -1.09135 
 1                     0.69658  -1.2465   -0.63275 
 6                    -0.70388   0.20503   0.26113 
 1                    -0.61289   0.86857   1.13983 
 1                    -1.27321   0.74237  -0.51821 
 1                    -1.286    -0.68464   0.56113 
 

 GradGradGradGradGradGradGradGradGradGradGradGradGradGradGradGradGradGrad
 Berny optimization.
 Initialization pass.
                           ----------------------------
                           !    Initial Parameters    !
                           ! (Angstroms and Degrees)  !
 --------------------------                            --------------------------
 ! Name  Definition              Value          Derivative Info.                !
 --------------------------------------------------------------------------------
 ! R1    R(1,2)                  1.1049         estimate D2E/DX2                !
 ! R2    R(1,3)                  1.1047         estimate D2E/DX2                !
 ! R3    R(1,4)                  1.1046         estimate D2E/DX2                !
 ! R4    R(1,5)                  1.5563         estimate D2E/DX2                !
 ! R5    R(5,6)                  1.1048         estimate D2E/DX2                !
 ! R6    R(5,7)                  1.1046         estimate D2E/DX2                !
 ! R7    R(5,8)                  1.1047         estimate D2E/DX2                !
 ! A1    A(2,1,3)              108.1225         estimate D2E/DX2                !
 ! A2    A(2,1,4)              108.1438         estimate D2E/DX2                !
 ! A3    A(2,1,5)              110.5931         estimate D2E/DX2                !
 ! A4    A(3,1,4)              108.1659         estimate D2E/DX2                !
 ! A5    A(3,1,5)              110.8376         estimate D2E/DX2                !
 ! A6    A(4,1,5)              110.8726         estimate D2E/DX2                !
 ! A7    A(1,5,6)              110.6006         estimate D2E/DX2                !
 ! A8    A(1,5,7)              110.8932         estimate D2E/DX2                !
 ! A9    A(1,5,8)              110.8073         estimate D2E/DX2                !
 ! A10   A(6,5,7)              108.1446         estimate D2E/DX2                !
 ! A11   A(6,5,8)              108.1247         estimate D2E/DX2                !
 ! A12   A(7,5,8)              108.1652         estimate D2E/DX2                !
 ! D1    D(2,1,5,6)             24.0107         estimate D2E/DX2                !
 ! D2    D(2,1,5,7)            143.9836         estimate D2E/DX2                !
 ! D3    D(2,1,5,8)            -95.8812         estimate D2E/DX2                !
 ! D4    D(3,1,5,6)            -95.8933         estimate D2E/DX2                !
 ! D5    D(3,1,5,7)             24.0796         estimate D2E/DX2                !
 ! D6    D(3,1,5,8)            144.2148         estimate D2E/DX2                !
 ! D7    D(4,1,5,6)            143.9642         estimate D2E/DX2                !
 ! D8    D(4,1,5,7)            -96.0629         estimate D2E/DX2                !
 ! D9    D(4,1,5,8)             24.0723         estimate D2E/DX2                !
 --------------------------------------------------------------------------------
 Trust Radius=3.00D-01 FncErr=1.00D-07 GrdErr=1.00D-07 EigMax=2.50D+02 EigMin=1.00D-04
 Number of steps in this run=     38 maximum allowed number of steps=    100.
 GradGradGradGradGradGradGradGradGradGradGradGradGradGradGradGradGradGrad

                          Input orientation:                          
 ---------------------------------------------------------------------
 Center     Atomic      Atomic             Coordinates (Angstroms)
 Number     Number       Type             X           Y           Z
 ---------------------------------------------------------------------
      1          6           0        0.702795   -0.205631   -0.262943
      2          1           0        1.454747   -0.131390    0.543173
      3          1           0        1.021014    0.452316   -1.091355
      4          1           0        0.696578   -1.246496   -0.632755
      5          6           0       -0.703881    0.205032    0.261128
      6          1           0       -0.612888    0.868567    1.139829
      7          1           0       -1.273207    0.742373   -0.518213
      8          1           0       -1.286003   -0.684642    0.561127
 ---------------------------------------------------------------------
                    Distance matrix (angstroms):
                    1          2          3          4          5
     1  C    0.000000
     2  H    1.104882   0.000000
     3  H    1.104727   1.788999   0.000000
     4  H    1.104627   1.789159   1.789283   0.000000
     5  C    1.556288   2.202817   2.205815   2.206184   0.000000
     6  H    2.202883   2.372978   2.796620   3.054546   1.104841
     7  H    2.206458   3.054788   2.382451   2.801566   1.104644
     8  H    2.205417   2.796090   3.057073   2.381525   1.104711
                    6          7          8
     6  H    0.000000
     7  H    1.789148   0.000000
     8  H    1.788978   1.789277   0.000000
 Symmetry turned off by external request.
 Stoichiometry    C2H6
 Framework group  C1[X(C2H6)]
 Deg. of freedom    18
 Full point group                 C1      NOp   1
 Rotational constants (GHZ):          78.3275361          19.4125728          19.4120829
 Standard basis: 3-21G (6D, 7F)
    30 basis functions,    48 primitive gaussians,    30 cartesian basis functions
     9 alpha electrons        9 beta electrons
       nuclear repulsion energy        41.6539349406 Hartrees.
 NAtoms=    8 NActive=    8 NUniq=    8 SFac= 1.00D+00 NAtFMM=   60 NAOKFM=F Big=F
 Integral buffers will be    131072 words long.
 Raffenetti 1 integral format.
 Two-electron integral symmetry is turned off.
 One-electron integrals computed using PRISM.
 NBasis=    30 RedAO= T EigKep=  1.99D-02  NBF=    30
 NBsUse=    30 1.00D-06 EigRej= -1.00D+00 NBFU=    30
 ExpMin= 1.83D-01 ExpMax= 1.72D+02 ExpMxC= 1.72D+02 IAcc=3 IRadAn=         5 AccDes= 0.00D+00
 Harris functional with IExCor=  205 and IRadAn=       5 diagonalized for initial guess.
 HarFok:  IExCor=  205 AccDes= 0.00D+00 IRadAn=         5 IDoV= 1 UseB2=F ITyADJ=14
 ICtDFT=  3500011 ScaDFX=  1.000000  1.000000  1.000000  1.000000
 FoFCou: FMM=F IPFlag=           0 FMFlag=      100000 FMFlg1=           0
         NFxFlg=           0 DoJE=T BraDBF=F KetDBF=T FulRan=T
         wScrn=  0.000000 ICntrl=       500 IOpCl=  0 I1Cent=   200000004 NGrid=           0
         NMat0=    1 NMatS0=      1 NMatT0=    0 NMatD0=    1 NMtDS0=    0 NMtDT0=    0
 Symmetry not used in FoFCou.
 Keep R1 ints in memory in canonical form, NReq=2523265.
 Requested convergence on RMS density matrix=1.00D-08 within 128 cycles.
 Requested convergence on MAX density matrix=1.00D-06.
 Requested convergence on             energy=1.00D-06.
 No special actions if energy rises.
 SCF Done:  E(RHF) =  -78.7891911332     A.U. after    9 cycles
            NFock=  9  Conv=0.10D-08     -V/T= 2.0043

 **********************************************************************

            Population analysis using the SCF density.

 **********************************************************************

 Alpha  occ. eigenvalues --  -11.16031 -11.16003  -1.01011  -0.83832  -0.59283
 Alpha  occ. eigenvalues --   -0.59279  -0.49883  -0.48140  -0.48115
 Alpha virt. eigenvalues --    0.27414   0.30529   0.30551   0.33691   0.40460
 Alpha virt. eigenvalues --    0.40461   0.42007   0.91640   0.91695   0.98573
 Alpha virt. eigenvalues --    1.06275   1.11972   1.12137   1.26907   1.33571
 Alpha virt. eigenvalues --    1.33608   1.35282   1.35296   1.41788   1.91464
 Alpha virt. eigenvalues --    2.30582
          Condensed to atoms (all electrons):
               1          2          3          4          5          6
     1  C    5.355982   0.377535   0.377460   0.377495   0.229154  -0.041077
     2  H    0.377535   0.517804  -0.025781  -0.025772  -0.041088  -0.004504
     3  H    0.377460  -0.025781   0.517208  -0.025715  -0.040646   0.001006
     4  H    0.377495  -0.025772  -0.025715   0.517137  -0.040606   0.002433
     5  C    0.229154  -0.041088  -0.040646  -0.040606   5.355982   0.377540
     6  H   -0.041077  -0.004504   0.001006   0.002433   0.377540   0.517777
     7  H   -0.040567   0.002431  -0.004404   0.000990   0.377485  -0.025770
     8  H   -0.040700   0.001008   0.002414  -0.004412   0.377467  -0.025783
               7          8
     1  C   -0.040567  -0.040700
     2  H    0.002431   0.001008
     3  H   -0.004404   0.002414
     4  H    0.000990  -0.004412
     5  C    0.377485   0.377467
     6  H   -0.025770  -0.025783
     7  H    0.517100  -0.025714
     8  H   -0.025714   0.517256
 Mulliken charges:
               1
     1  C   -0.595281
     2  H    0.198367
     3  H    0.198459
     4  H    0.198452
     5  C   -0.595288
     6  H    0.198378
     7  H    0.198449
     8  H    0.198465
 Sum of Mulliken charges =  -0.00000
 Mulliken charges with hydrogens summed into heavy atoms:
               1
     1  C   -0.000003
     5  C    0.000003
 Electronic spatial extent (au):  <R**2>=            112.1935
 Charge=             -0.0000 electrons
 Dipole moment (field-independent basis, Debye):
    X=              0.0007    Y=              0.0005    Z=              0.0016  Tot=              0.0019
 Quadrupole moment (field-independent basis, Debye-Ang):
   XX=            -15.5343   YY=            -15.1267   ZZ=            -15.1513
   XY=              0.1305   XZ=              0.1650   YZ=             -0.0494
 Traceless Quadrupole moment (field-independent basis, Debye-Ang):
   XX=             -0.2635   YY=              0.1441   ZZ=              0.1195
   XY=              0.1305   XZ=              0.1650   YZ=             -0.0494
 Octapole moment (field-independent basis, Debye-Ang**2):
  XXX=              0.0612  YYY=             -0.8196  ZZZ=              0.1213  XYY=             -0.3305
  XXY=             -0.0069  XXZ=              0.1722  XZZ=              0.2925  YZZ=              0.8363
  YYZ=             -0.2619  XYZ=              0.2405
 Hexadecapole moment (field-independent basis, Debye-Ang**3):
 XXXX=            -82.3232 YYYY=            -32.9771 ZZZZ=            -36.3166 XXXY=              8.1940
 XXXZ=             11.0191 YYYX=              7.6188 YYYZ=             -2.1808 ZZZX=              9.7232
 ZZZY=             -2.7440 XXYY=            -18.9361 XXZZ=            -18.9813 YYZZ=            -10.7611
 XXYZ=             -1.9281 YYXZ=              2.6921 ZZXY=              2.5544
 N-N= 4.165393494064D+01 E-N=-2.657093653678D+02  KE= 7.845464346743D+01
 Calling FoFJK, ICntrl=      2127 FMM=F ISym2X=0 I1Cent= 0 IOpClX= 0 NMat=1 NMatS=1 NMatT=0.
 -------------------------------------------------------------------
 Center     Atomic                   Forces (Hartrees/Bohr)
 Number     Number              X              Y              Z
 -------------------------------------------------------------------
      1        6           0.009037408   -0.002492980   -0.003037847
      2        1          -0.009156340   -0.002518855   -0.011363101
      3        1          -0.002795881   -0.008647189    0.011583804
      4        1           0.000898141    0.014211456    0.003584997
      5        6          -0.008766640    0.002704076    0.003558832
      6        1          -0.002663522   -0.007820827   -0.012262701
      7        1           0.006256977   -0.007985286    0.010630537
      8        1           0.007189858    0.012549605   -0.002694521
 -------------------------------------------------------------------
 Cartesian Forces:  Max     0.014211456 RMS     0.007896877

 GradGradGradGradGradGradGradGradGradGradGradGradGradGradGradGradGradGrad
 Berny optimization.
 FormGI is forming the generalized inverse of G from B-inverse, IUseBI=4.
 Internal  Forces:  Max     0.014691245 RMS     0.006854467
 Search for a local minimum.
 Step number   1 out of a maximum of   38
 All quantities printed in internal units (Hartrees-Bohrs-Radians)
 Mixed Optimization -- RFO/linear search
 Second derivative matrix not updated -- first step.
 ITU=  0
     Eigenvalues ---    0.00230   0.05459   0.05459   0.05491   0.05491
     Eigenvalues ---    0.16000   0.16000   0.16000   0.16000   0.16000
     Eigenvalues ---    0.16000   0.27123   0.33148   0.33152   0.33165
     Eigenvalues ---    0.33166   0.33174   0.33176
 RFO step:  Lambda=-4.63819856D-03 EMin= 2.30000000D-03
 Linear search not attempted -- first point.
 Iteration  1 RMS(Cart)=  0.05091934 RMS(Int)=  0.00155194
 Iteration  2 RMS(Cart)=  0.00154839 RMS(Int)=  0.00002026
 Iteration  3 RMS(Cart)=  0.00000087 RMS(Int)=  0.00002024
 Variable       Old X    -DE/DX   Delta X   Delta X   Delta X     New X
                                 (Linear)    (Quad)   (Total)
    R1        2.08792  -0.01469   0.00000  -0.04371  -0.04371   2.04422
    R2        2.08763  -0.01464   0.00000  -0.04354  -0.04354   2.04409
    R3        2.08744  -0.01460   0.00000  -0.04339  -0.04339   2.04405
    R4        2.94096  -0.00223   0.00000  -0.00807  -0.00807   2.93289
    R5        2.08785  -0.01467   0.00000  -0.04364  -0.04364   2.04421
    R6        2.08747  -0.01461   0.00000  -0.04343  -0.04343   2.04404
    R7        2.08760  -0.01463   0.00000  -0.04349  -0.04349   2.04411
    A1        1.88709  -0.00134   0.00000  -0.00753  -0.00757   1.87953
    A2        1.88746  -0.00136   0.00000  -0.00794  -0.00797   1.87949
    A3        1.93021   0.00167   0.00000   0.01063   0.01060   1.94081
    A4        1.88785  -0.00120   0.00000  -0.00823  -0.00824   1.87961
    A5        1.93448   0.00104   0.00000   0.00616   0.00614   1.94062
    A6        1.93509   0.00102   0.00000   0.00585   0.00583   1.94092
    A7        1.93035   0.00165   0.00000   0.01052   0.01048   1.94083
    A8        1.93545   0.00096   0.00000   0.00548   0.00545   1.94091
    A9        1.93395   0.00112   0.00000   0.00668   0.00666   1.94061
   A10        1.88748  -0.00134   0.00000  -0.00795  -0.00798   1.87949
   A11        1.88713  -0.00136   0.00000  -0.00756  -0.00760   1.87953
   A12        1.88784  -0.00120   0.00000  -0.00822  -0.00823   1.87961
    D1        0.41907   0.00076   0.00000   0.10450   0.10451   0.52357
    D2        2.51299   0.00079   0.00000   0.10503   0.10503   2.61802
    D3       -1.67344   0.00065   0.00000   0.10273   0.10272  -1.57072
    D4       -1.67365   0.00067   0.00000   0.10295   0.10295  -1.57071
    D5        0.42027   0.00070   0.00000   0.10347   0.10347   0.52374
    D6        2.51702   0.00056   0.00000   0.10118   0.10116   2.61818
    D7        2.51265   0.00081   0.00000   0.10536   0.10537   2.61801
    D8       -1.67661   0.00084   0.00000   0.10588   0.10589  -1.57073
    D9        0.42014   0.00070   0.00000   0.10358   0.10358   0.52372
         Item               Value     Threshold  Converged?
 Maximum Force            0.014691     0.000450     NO 
 RMS     Force            0.006854     0.000300     NO 
 Maximum Displacement     0.108970     0.001800     NO 
 RMS     Displacement     0.051160     0.001200     NO 
 Predicted change in Energy=-2.572518D-03
 GradGradGradGradGradGradGradGradGradGradGradGradGradGradGradGradGradGrad

                          Input orientation:                          
 ---------------------------------------------------------------------
 Center     Atomic      Atomic             Coordinates (Angstroms)
 Number     Number       Type             X           Y           Z
 ---------------------------------------------------------------------
      1          6           0        0.701280   -0.204829   -0.261312
      2          1           0        1.435480   -0.185842    0.532903
      3          1           0        1.040424    0.466693   -1.038542
      4          1           0        0.688645   -1.204870   -0.673329
      5          6           0       -0.701524    0.204838    0.261248
      6          1           0       -0.623878    0.896472    1.089375
      7          1           0       -1.283147    0.684708   -0.514271
      8          1           0       -1.258126   -0.657041    0.603919
 ---------------------------------------------------------------------
                    Distance matrix (angstroms):
                    1          2          3          4          5
     1  C    0.000000
     2  H    1.081753   0.000000
     3  H    1.081687   1.746801   0.000000
     4  H    1.081666   1.746762   1.746784   0.000000
     5  C    1.552016   2.189341   2.189156   2.189356   0.000000
     6  H    2.189353   2.392075   2.735442   3.040639   1.081750
     7  H    2.189341   3.040619   2.391939   2.735648   1.081661
     8  H    2.189153   2.735431   3.040360   2.391944   1.081695
                    6          7          8
     6  H    0.000000
     7  H    1.746758   0.000000
     8  H    1.746809   1.746788   0.000000
 Symmetry turned off by external request.
 Stoichiometry    C2H6
 Framework group  C1[X(C2H6)]
 Deg. of freedom    18
 Full point group                 C1      NOp   1
 Rotational constants (GHZ):          82.1720019          19.6149117          19.6148294
 Standard basis: 3-21G (6D, 7F)
    30 basis functions,    48 primitive gaussians,    30 cartesian basis functions
     9 alpha electrons        9 beta electrons
       nuclear repulsion energy        42.1715546332 Hartrees.
 NAtoms=    8 NActive=    8 NUniq=    8 SFac= 1.00D+00 NAtFMM=   60 NAOKFM=F Big=F
 Integral buffers will be    131072 words long.
 Raffenetti 1 integral format.
 Two-electron integral symmetry is turned off.
 One-electron integrals computed using PRISM.
 NBasis=    30 RedAO= T EigKep=  1.91D-02  NBF=    30
 NBsUse=    30 1.00D-06 EigRej= -1.00D+00 NBFU=    30
 Initial guess from the checkpoint file:  "/scratch/10711855.yak.local/Gau-16149.chk"
 B after Tr=     0.000442    0.000319    0.000919
         Rot=    1.000000    0.000007    0.000006    0.000013 Ang=   0.00 deg.
 ExpMin= 1.83D-01 ExpMax= 1.72D+02 ExpMxC= 1.72D+02 IAcc=2 IRadAn=         4 AccDes= 0.00D+00
 Harris functional with IExCor=  205 and IRadAn=       4 diagonalized for initial guess.
 HarFok:  IExCor=  205 AccDes= 0.00D+00 IRadAn=         4 IDoV= 1 UseB2=F ITyADJ=14
 ICtDFT=  3500011 ScaDFX=  1.000000  1.000000  1.000000  1.000000
 FoFCou: FMM=F IPFlag=           0 FMFlag=      100000 FMFlg1=           0
         NFxFlg=           0 DoJE=T BraDBF=F KetDBF=T FulRan=T
         wScrn=  0.000000 ICntrl=       500 IOpCl=  0 I1Cent=   200000004 NGrid=           0
         NMat0=    1 NMatS0=      1 NMatT0=    0 NMatD0=    1 NMtDS0=    0 NMtDT0=    0
 Symmetry not used in FoFCou.
 Keep R1 ints in memory in canonical form, NReq=2523265.
 Requested convergence on RMS density matrix=1.00D-08 within 128 cycles.
 Requested convergence on MAX density matrix=1.00D-06.
 Requested convergence on             energy=1.00D-06.
 No special actions if energy rises.
 SCF Done:  E(RHF) =  -78.7916730793     A.U. after    8 cycles
            NFock=  8  Conv=0.33D-08     -V/T= 2.0018
 Calling FoFJK, ICntrl=      2127 FMM=F ISym2X=0 I1Cent= 0 IOpClX= 0 NMat=1 NMatS=1 NMatT=0.
 -------------------------------------------------------------------
 Center     Atomic                   Forces (Hartrees/Bohr)
 Number     Number              X              Y              Z
 -------------------------------------------------------------------
      1        6          -0.001425766    0.000481094    0.000573509
      2        1           0.000205338   -0.000813189    0.001788485
      3        1           0.000305772    0.001961666   -0.000239881
      4        1          -0.001032360   -0.001023295   -0.001410370
      5        6           0.001472234   -0.000447357   -0.000478397
      6        1           0.000861731    0.001746044    0.000341424
      7        1          -0.000619171   -0.000417858   -0.001884513
      8        1           0.000232223   -0.001487106    0.001309743
 -------------------------------------------------------------------
 Cartesian Forces:  Max     0.001961666 RMS     0.001102856

 GradGradGradGradGradGradGradGradGradGradGradGradGradGradGradGradGradGrad
 Berny optimization.
 Using GEDIIS/GDIIS optimizer.
 FormGI is forming the generalized inverse of G from B-inverse, IUseBI=4.
 Internal  Forces:  Max     0.002159502 RMS     0.001020253
 Search for a local minimum.
 Step number   2 out of a maximum of   38
 All quantities printed in internal units (Hartrees-Bohrs-Radians)
 Mixed Optimization -- RFO/linear search
 Update second derivatives using D2CorX and points    1    2
 DE= -2.48D-03 DEPred=-2.57D-03 R= 9.65D-01
 TightC=F SS=  1.41D+00  RLast= 3.31D-01 DXNew= 5.0454D-01 9.9167D-01
 Trust test= 9.65D-01 RLast= 3.31D-01 DXMaxT set to 5.05D-01
 ITU=  1  0
 Use linear search instead of GDIIS.
     Eigenvalues ---    0.00209   0.05395   0.05395   0.05396   0.05396
     Eigenvalues ---    0.15996   0.16000   0.16000   0.16000   0.16000
     Eigenvalues ---    0.16367   0.26724   0.33150   0.33156   0.33166
     Eigenvalues ---    0.33170   0.33175   0.38783
 RFO step:  Lambda=-1.30425792D-03 EMin= 2.08589601D-03
 Quartic linear search produced a step of  0.04706.
 Iteration  1 RMS(Cart)=  0.08840001 RMS(Int)=  0.00437703
 Iteration  2 RMS(Cart)=  0.00447037 RMS(Int)=  0.00000929
 Iteration  3 RMS(Cart)=  0.00000885 RMS(Int)=  0.00000523
 Iteration  4 RMS(Cart)=  0.00000000 RMS(Int)=  0.00000523
 Variable       Old X    -DE/DX   Delta X   Delta X   Delta X     New X
                                 (Linear)    (Quad)   (Total)
    R1        2.04422   0.00144  -0.00206   0.00154  -0.00052   2.04370
    R2        2.04409   0.00149  -0.00205   0.00169  -0.00036   2.04373
    R3        2.04405   0.00150  -0.00204   0.00172  -0.00032   2.04373
    R4        2.93289  -0.00216  -0.00038  -0.00838  -0.00876   2.92413
    R5        2.04421   0.00144  -0.00205   0.00154  -0.00051   2.04370
    R6        2.04404   0.00150  -0.00204   0.00173  -0.00031   2.04373
    R7        2.04411   0.00148  -0.00205   0.00167  -0.00037   2.04373
    A1        1.87953   0.00078  -0.00036   0.00435   0.00399   1.88352
    A2        1.87949   0.00080  -0.00038   0.00437   0.00399   1.88348
    A3        1.94081  -0.00075   0.00050  -0.00394  -0.00345   1.93736
    A4        1.87961   0.00078  -0.00039   0.00426   0.00387   1.88348
    A5        1.94062  -0.00070   0.00029  -0.00394  -0.00366   1.93696
    A6        1.94092  -0.00076   0.00027  -0.00436  -0.00409   1.93683
    A7        1.94083  -0.00075   0.00049  -0.00397  -0.00349   1.93734
    A8        1.94091  -0.00076   0.00026  -0.00436  -0.00411   1.93680
    A9        1.94061  -0.00070   0.00031  -0.00389  -0.00359   1.93702
   A10        1.87949   0.00080  -0.00038   0.00437   0.00399   1.88348
   A11        1.87953   0.00078  -0.00036   0.00434   0.00398   1.88351
   A12        1.87961   0.00078  -0.00039   0.00426   0.00386   1.88348
    D1        0.52357   0.00071   0.00492   0.19616   0.20108   0.72465
    D2        2.61802   0.00071   0.00494   0.19610   0.20104   2.81906
    D3       -1.57072   0.00071   0.00483   0.19595   0.20078  -1.36994
    D4       -1.57071   0.00071   0.00484   0.19594   0.20079  -1.36992
    D5        0.52374   0.00070   0.00487   0.19588   0.20075   0.72449
    D6        2.61818   0.00070   0.00476   0.19573   0.20049   2.81867
    D7        2.61801   0.00071   0.00496   0.19612   0.20108   2.81909
    D8       -1.57073   0.00070   0.00498   0.19606   0.20104  -1.36968
    D9        0.52372   0.00070   0.00487   0.19591   0.20078   0.72450
         Item               Value     Threshold  Converged?
 Maximum Force            0.002160     0.000450     NO 
 RMS     Force            0.001020     0.000300     NO 
 Maximum Displacement     0.180981     0.001800     NO 
 RMS     Displacement     0.088802     0.001200     NO 
 Predicted change in Energy=-9.090073D-04
 GradGradGradGradGradGradGradGradGradGradGradGradGradGradGradGradGradGrad

                          Input orientation:                          
 ---------------------------------------------------------------------
 Center     Atomic      Atomic             Coordinates (Angstroms)
 Number     Number       Type             X           Y           Z
 ---------------------------------------------------------------------
      1          6           0        0.699252   -0.204120   -0.260436
      2          1           0        1.408306   -0.281614    0.552479
      3          1           0        1.078196    0.524453   -0.964152
      4          1           0        0.661304   -1.161927   -0.761236
      5          6           0       -0.699379    0.204212    0.260609
      6          1           0       -0.621643    0.970387    1.019906
      7          1           0       -1.313224    0.591479   -0.541172
      8          1           0       -1.213657   -0.642742    0.693994
 ---------------------------------------------------------------------
                    Distance matrix (angstroms):
                    1          2          3          4          5
     1  C    0.000000
     2  H    1.081477   0.000000
     3  H    1.081496   1.748967   0.000000
     4  H    1.081497   1.748946   1.748957   0.000000
     5  C    1.547382   2.182556   2.182285   2.182192   0.000000
     6  H    2.182545   2.430368   2.650433   3.060259   1.081480
     7  H    2.182166   3.060243   2.429464   2.649834   1.081496
     8  H    2.182326   2.650497   3.060128   2.429553   1.081497
                    6          7          8
     6  H    0.000000
     7  H    1.748948   0.000000
     8  H    1.748967   1.748957   0.000000
 Symmetry turned off by external request.
 Stoichiometry    C2H6
 Framework group  C1[X(C2H6)]
 Deg. of freedom    18
 Full point group                 C1      NOp   1
 Rotational constants (GHZ):          81.9678968          19.7414785          19.7414360
 Standard basis: 3-21G (6D, 7F)
    30 basis functions,    48 primitive gaussians,    30 cartesian basis functions
     9 alpha electrons        9 beta electrons
       nuclear repulsion energy        42.2421470637 Hartrees.
 NAtoms=    8 NActive=    8 NUniq=    8 SFac= 1.00D+00 NAtFMM=   60 NAOKFM=F Big=F
 Integral buffers will be    131072 words long.
 Raffenetti 1 integral format.
 Two-electron integral symmetry is turned off.
 One-electron integrals computed using PRISM.
 NBasis=    30 RedAO= T EigKep=  1.90D-02  NBF=    30
 NBsUse=    30 1.00D-06 EigRej= -1.00D+00 NBFU=    30
 Initial guess from the checkpoint file:  "/scratch/10711855.yak.local/Gau-16149.chk"
 B after Tr=     0.000061    0.000044    0.000125
         Rot=    1.000000   -0.000005   -0.000004   -0.000011 Ang=  -0.00 deg.
 ExpMin= 1.83D-01 ExpMax= 1.72D+02 ExpMxC= 1.72D+02 IAcc=2 IRadAn=         4 AccDes= 0.00D+00
 Harris functional with IExCor=  205 and IRadAn=       4 diagonalized for initial guess.
 HarFok:  IExCor=  205 AccDes= 0.00D+00 IRadAn=         4 IDoV= 1 UseB2=F ITyADJ=14
 ICtDFT=  3500011 ScaDFX=  1.000000  1.000000  1.000000  1.000000
 FoFCou: FMM=F IPFlag=           0 FMFlag=      100000 FMFlg1=           0
         NFxFlg=           0 DoJE=T BraDBF=F KetDBF=T FulRan=T
         wScrn=  0.000000 ICntrl=       500 IOpCl=  0 I1Cent=   200000004 NGrid=           0
         NMat0=    1 NMatS0=      1 NMatT0=    0 NMatD0=    1 NMtDS0=    0 NMtDT0=    0
 Symmetry not used in FoFCou.
 Keep R1 ints in memory in canonical form, NReq=2523265.
 Requested convergence on RMS density matrix=1.00D-08 within 128 cycles.
 Requested convergence on MAX density matrix=1.00D-06.
 Requested convergence on             energy=1.00D-06.
 No special actions if energy rises.
 SCF Done:  E(RHF) =  -78.7929357394     A.U. after    8 cycles
            NFock=  8  Conv=0.80D-08     -V/T= 2.0017
 Calling FoFJK, ICntrl=      2127 FMM=F ISym2X=0 I1Cent= 0 IOpClX= 0 NMat=1 NMatS=1 NMatT=0.
 -------------------------------------------------------------------
 Center     Atomic                   Forces (Hartrees/Bohr)
 Number     Number              X              Y              Z
 -------------------------------------------------------------------
      1        6          -0.001818658    0.000527196    0.000650909
      2        1           0.000617493   -0.000923370    0.001747095
      3        1           0.000674828    0.001905610   -0.000392523
      4        1          -0.000652145   -0.001160491   -0.001568241
      5        6           0.001798818   -0.000542877   -0.000688181
      6        1           0.000527414    0.001925351    0.000541730
      7        1          -0.001018092   -0.000298267   -0.001762915
      8        1          -0.000129659   -0.001433152    0.001472127
 -------------------------------------------------------------------
 Cartesian Forces:  Max     0.001925351 RMS     0.001181833

 GradGradGradGradGradGradGradGradGradGradGradGradGradGradGradGradGradGrad
 Berny optimization.
 Using GEDIIS/GDIIS optimizer.
 FormGI is forming the generalized inverse of G from B-inverse, IUseBI=4.
 Internal  Forces:  Max     0.001784254 RMS     0.000967189
 Search for a local minimum.
 Step number   3 out of a maximum of   38
 All quantities printed in internal units (Hartrees-Bohrs-Radians)
 Mixed Optimization -- En-DIIS/RFO-DIIS
 Update second derivatives using D2CorX and points    2    3
 DE= -1.26D-03 DEPred=-9.09D-04 R= 1.39D+00
 TightC=F SS=  1.41D+00  RLast= 6.03D-01 DXNew= 8.4853D-01 1.8085D+00
 Trust test= 1.39D+00 RLast= 6.03D-01 DXMaxT set to 8.49D-01
 ITU=  1  1  0
 Use linear search instead of GDIIS.
     Eigenvalues ---    0.00055   0.05433   0.05434   0.05437   0.05437
     Eigenvalues ---    0.15999   0.16000   0.16000   0.16000   0.16002
     Eigenvalues ---    0.16427   0.26773   0.33150   0.33158   0.33166
     Eigenvalues ---    0.33171   0.33175   0.36973
 RFO step:  Lambda=-7.34915938D-05 EMin= 5.46461232D-04
 Quartic linear search produced a step of  1.08969.
 Iteration  1 RMS(Cart)=  0.08858449 RMS(Int)=  0.01682430
 Iteration  2 RMS(Cart)=  0.01348539 RMS(Int)=  0.00010629
 Iteration  3 RMS(Cart)=  0.00010662 RMS(Int)=  0.00001054
 Iteration  4 RMS(Cart)=  0.00000000 RMS(Int)=  0.00001054
 Variable       Old X    -DE/DX   Delta X   Delta X   Delta X     New X
                                 (Linear)    (Quad)   (Total)
    R1        2.04370   0.00178  -0.00057   0.00589   0.00532   2.04902
    R2        2.04373   0.00178  -0.00039   0.00567   0.00528   2.04901
    R3        2.04373   0.00178  -0.00035   0.00565   0.00530   2.04904
    R4        2.92413  -0.00130  -0.00954  -0.00123  -0.01078   2.91335
    R5        2.04370   0.00178  -0.00055   0.00587   0.00532   2.04902
    R6        2.04373   0.00178  -0.00034   0.00565   0.00531   2.04904
    R7        2.04373   0.00177  -0.00041   0.00568   0.00528   2.04901
    A1        1.88352   0.00045   0.00435   0.00012   0.00445   1.88797
    A2        1.88348   0.00045   0.00435   0.00016   0.00449   1.88797
    A3        1.93736  -0.00046  -0.00376  -0.00071  -0.00448   1.93288
    A4        1.88348   0.00043   0.00421   0.00027   0.00446   1.88794
    A5        1.93696  -0.00040  -0.00399  -0.00023  -0.00424   1.93273
    A6        1.93683  -0.00039  -0.00446   0.00042  -0.00405   1.93278
    A7        1.93734  -0.00046  -0.00380  -0.00065  -0.00446   1.93288
    A8        1.93680  -0.00039  -0.00448   0.00047  -0.00403   1.93277
    A9        1.93702  -0.00041  -0.00391  -0.00035  -0.00428   1.93274
   A10        1.88348   0.00045   0.00435   0.00016   0.00449   1.88797
   A11        1.88351   0.00045   0.00434   0.00014   0.00446   1.88797
   A12        1.88348   0.00043   0.00421   0.00027   0.00446   1.88794
    D1        0.72465   0.00060   0.21911   0.00798   0.22709   0.95174
    D2        2.81906   0.00060   0.21907   0.00806   0.22713   3.04619
    D3       -1.36994   0.00061   0.21879   0.00847   0.22726  -1.14268
    D4       -1.36992   0.00061   0.21880   0.00845   0.22725  -1.14267
    D5        0.72449   0.00061   0.21876   0.00853   0.22729   0.95178
    D6        2.81867   0.00062   0.21847   0.00894   0.22742   3.04609
    D7        2.81909   0.00060   0.21912   0.00799   0.22710   3.04620
    D8       -1.36968   0.00059   0.21907   0.00807   0.22714  -1.14254
    D9        0.72450   0.00061   0.21879   0.00848   0.22727   0.95178
         Item               Value     Threshold  Converged?
 Maximum Force            0.001784     0.000450     NO 
 RMS     Force            0.000967     0.000300     NO 
 Maximum Displacement     0.206339     0.001800     NO 
 RMS     Displacement     0.100733     0.001200     NO 
 Predicted change in Energy=-1.166531D-03
 GradGradGradGradGradGradGradGradGradGradGradGradGradGradGradGradGradGrad

                          Input orientation:                          
 ---------------------------------------------------------------------
 Center     Atomic      Atomic             Coordinates (Angstroms)
 Number     Number       Type             X           Y           Z
 ---------------------------------------------------------------------
      1          6           0        0.696642   -0.203401   -0.259537
      2          1           0        1.374349   -0.390803    0.565865
      3          1           0        1.121670    0.582071   -0.874412
      4          1           0        0.635120   -1.105441   -0.858079
      5          6           0       -0.696832    0.203447    0.259578
      6          1           0       -0.623395    1.048336    0.935200
      7          1           0       -1.346190    0.483244   -0.562470
      8          1           0       -1.162209   -0.617324    0.793845
 ---------------------------------------------------------------------
                    Distance matrix (angstroms):
                    1          2          3          4          5
     1  C    0.000000
     2  H    1.084294   0.000000
     3  H    1.084290   1.756339   0.000000
     4  H    1.084304   1.756355   1.756330   0.000000
     5  C    1.541679   2.176404   2.176290   2.176337   0.000000
     6  H    2.176405   2.489681   2.556824   3.072209   1.084295
     7  H    2.176329   3.072202   2.489459   2.556735   1.084304
     8  H    2.176298   2.556836   3.072089   2.489479   1.084289
                    6          7          8
     6  H    0.000000
     7  H    1.756354   0.000000
     8  H    1.756339   1.756329   0.000000
 Symmetry turned off by external request.
 Stoichiometry    C2H6
 Framework group  C1[X(C2H6)]
 Deg. of freedom    18
 Full point group                 C1      NOp   1
 Rotational constants (GHZ):          81.2801359          19.8702347          19.8701573
 Standard basis: 3-21G (6D, 7F)
    30 basis functions,    48 primitive gaussians,    30 cartesian basis functions
     9 alpha electrons        9 beta electrons
       nuclear repulsion energy        42.2627441503 Hartrees.
 NAtoms=    8 NActive=    8 NUniq=    8 SFac= 1.00D+00 NAtFMM=   60 NAOKFM=F Big=F
 Integral buffers will be    131072 words long.
 Raffenetti 1 integral format.
 Two-electron integral symmetry is turned off.
 One-electron integrals computed using PRISM.
 NBasis=    30 RedAO= T EigKep=  1.88D-02  NBF=    30
 NBsUse=    30 1.00D-06 EigRej= -1.00D+00 NBFU=    30
 Initial guess from the checkpoint file:  "/scratch/10711855.yak.local/Gau-16149.chk"
 B after Tr=    -0.000033   -0.000024   -0.000069
         Rot=    1.000000    0.000001    0.000001    0.000002 Ang=   0.00 deg.
 ExpMin= 1.83D-01 ExpMax= 1.72D+02 ExpMxC= 1.72D+02 IAcc=2 IRadAn=         4 AccDes= 0.00D+00
 Harris functional with IExCor=  205 and IRadAn=       4 diagonalized for initial guess.
 HarFok:  IExCor=  205 AccDes= 0.00D+00 IRadAn=         4 IDoV= 1 UseB2=F ITyADJ=14
 ICtDFT=  3500011 ScaDFX=  1.000000  1.000000  1.000000  1.000000
 FoFCou: FMM=F IPFlag=           0 FMFlag=      100000 FMFlg1=           0
         NFxFlg=           0 DoJE=T BraDBF=F KetDBF=T FulRan=T
         wScrn=  0.000000 ICntrl=       500 IOpCl=  0 I1Cent=   200000004 NGrid=           0
         NMat0=    1 NMatS0=      1 NMatT0=    0 NMatD0=    1 NMtDS0=    0 NMtDT0=    0
 Symmetry not used in FoFCou.
 Keep R1 ints in memory in canonical form, NReq=2523265.
 Requested convergence on RMS density matrix=1.00D-08 within 128 cycles.
 Requested convergence on MAX density matrix=1.00D-06.
 Requested convergence on             energy=1.00D-06.
 No special actions if energy rises.
 SCF Done:  E(RHF) =  -78.7938524512     A.U. after    8 cycles
            NFock=  8  Conv=0.64D-08     -V/T= 2.0019
 Calling FoFJK, ICntrl=      2127 FMM=F ISym2X=0 I1Cent= 0 IOpClX= 0 NMat=1 NMatS=1 NMatT=0.
 -------------------------------------------------------------------
 Center     Atomic                   Forces (Hartrees/Bohr)
 Number     Number              X              Y              Z
 -------------------------------------------------------------------
      1        6           0.000287350   -0.000076069   -0.000119819
      2        1          -0.000025391   -0.000349757   -0.000264608
      3        1           0.000283094   -0.000104670    0.000327232
      4        1           0.000192800    0.000328970   -0.000222885
      5        6          -0.000294422    0.000071031    0.000105391
      6        1          -0.000273068    0.000087724   -0.000332619
      7        1          -0.000181408   -0.000318084    0.000247791
      8        1           0.000011043    0.000360854    0.000259516
 -------------------------------------------------------------------
 Cartesian Forces:  Max     0.000360854 RMS     0.000239606

 GradGradGradGradGradGradGradGradGradGradGradGradGradGradGradGradGradGrad
 Berny optimization.
 Using GEDIIS/GDIIS optimizer.
 FormGI is forming the generalized inverse of G from B-inverse, IUseBI=4.
 Internal  Forces:  Max     0.000814414 RMS     0.000260571
 Search for a local minimum.
 Step number   4 out of a maximum of   38
 All quantities printed in internal units (Hartrees-Bohrs-Radians)
 Mixed Optimization -- En-DIIS/RFO-DIIS
 Swapping is turned off.
 Update second derivatives using D2CorX and points    3    4
 DE= -9.17D-04 DEPred=-1.17D-03 R= 7.86D-01
 TightC=F SS=  1.41D+00  RLast= 6.82D-01 DXNew= 1.4270D+00 2.0461D+00
 Trust test= 7.86D-01 RLast= 6.82D-01 DXMaxT set to 1.43D+00
 ITU=  1  1  1  0
     Eigenvalues ---    0.00171   0.05479   0.05480   0.05480   0.05481
     Eigenvalues ---    0.16000   0.16000   0.16000   0.16000   0.16000
     Eigenvalues ---    0.16402   0.26787   0.33150   0.33158   0.33166
     Eigenvalues ---    0.33170   0.33175   0.33455
 En-DIIS/RFO-DIIS/Sim-DIIS IScMMF=       -3 using points:     4    3
 RFO step:  Lambda=-2.23567716D-04.
 DidBck=F Rises=F RFO-DIIS coefs:    1.55433   -0.55433
 Iteration  1 RMS(Cart)=  0.05597587 RMS(Int)=  0.00170885
 Iteration  2 RMS(Cart)=  0.00176530 RMS(Int)=  0.00000379
 Iteration  3 RMS(Cart)=  0.00000131 RMS(Int)=  0.00000367
 Iteration  4 RMS(Cart)=  0.00000000 RMS(Int)=  0.00000367
 Variable       Old X    -DE/DX   Delta X   Delta X   Delta X     New X
                                 (Linear)    (Quad)   (Total)
    R1        2.04902  -0.00016   0.00295  -0.00365  -0.00070   2.04832
    R2        2.04901  -0.00015   0.00293  -0.00359  -0.00066   2.04835
    R3        2.04904  -0.00016   0.00294  -0.00364  -0.00070   2.04833
    R4        2.91335   0.00081  -0.00597   0.00745   0.00147   2.91483
    R5        2.04902  -0.00016   0.00295  -0.00365  -0.00070   2.04832
    R6        2.04904  -0.00016   0.00294  -0.00364  -0.00070   2.04834
    R7        2.04901  -0.00015   0.00292  -0.00359  -0.00066   2.04835
    A1        1.88797  -0.00024   0.00247  -0.00371  -0.00125   1.88671
    A2        1.88797  -0.00024   0.00249  -0.00375  -0.00126   1.88671
    A3        1.93288   0.00022  -0.00248   0.00358   0.00109   1.93397
    A4        1.88794  -0.00024   0.00247  -0.00369  -0.00122   1.88672
    A5        1.93273   0.00024  -0.00235   0.00366   0.00131   1.93403
    A6        1.93278   0.00023  -0.00225   0.00342   0.00117   1.93395
    A7        1.93288   0.00022  -0.00247   0.00356   0.00109   1.93397
    A8        1.93277   0.00023  -0.00223   0.00342   0.00119   1.93395
    A9        1.93274   0.00024  -0.00237   0.00368   0.00130   1.93404
   A10        1.88797  -0.00024   0.00249  -0.00374  -0.00126   1.88671
   A11        1.88797  -0.00024   0.00247  -0.00372  -0.00126   1.88671
   A12        1.88794  -0.00024   0.00247  -0.00369  -0.00122   1.88672
    D1        0.95174   0.00022   0.12588   0.00034   0.12623   1.07797
    D2        3.04619   0.00022   0.12590   0.00023   0.12614  -3.11086
    D3       -1.14268   0.00022   0.12598   0.00026   0.12623  -1.01645
    D4       -1.14267   0.00022   0.12597   0.00025   0.12622  -1.01645
    D5        0.95178   0.00022   0.12599   0.00014   0.12613   1.07791
    D6        3.04609   0.00022   0.12606   0.00017   0.12623  -3.11086
    D7        3.04620   0.00022   0.12589   0.00023   0.12613  -3.11086
    D8       -1.14254   0.00021   0.12591   0.00012   0.12604  -1.01650
    D9        0.95178   0.00022   0.12598   0.00015   0.12614   1.07791
         Item               Value     Threshold  Converged?
 Maximum Force            0.000814     0.000450     NO 
 RMS     Force            0.000261     0.000300     YES
 Maximum Displacement     0.116190     0.001800     NO 
 RMS     Displacement     0.055945     0.001200     NO 
 Predicted change in Energy=-1.259514D-04
 GradGradGradGradGradGradGradGradGradGradGradGradGradGradGradGradGradGrad

                          Input orientation:                          
 ---------------------------------------------------------------------
 Center     Atomic      Atomic             Coordinates (Angstroms)
 Number     Number       Type             X           Y           Z
 ---------------------------------------------------------------------
      1          6           0        0.696991   -0.203472   -0.259703
      2          1           0        1.356992   -0.452288    0.563330
      3          1           0        1.149732    0.605229   -0.821798
      4          1           0        0.628410   -1.068216   -0.909645
      5          6           0       -0.697199    0.203507    0.259707
      6          1           0       -0.632513    1.086645    0.884829
      7          1           0       -1.366289    0.422562   -0.564455
      8          1           0       -1.136969   -0.593838    0.847726
 ---------------------------------------------------------------------
                    Distance matrix (angstroms):
                    1          2          3          4          5
     1  C    0.000000
     2  H    1.083925   0.000000
     3  H    1.083939   1.754958   0.000000
     4  H    1.083932   1.754951   1.754968   0.000000
     5  C    1.542460   2.177602   2.177656   2.177591   0.000000
     6  H    2.177599   2.535706   2.514107   3.074653   1.083926
     7  H    2.177594   3.074657   2.535735   2.514040   1.083933
     8  H    2.177658   2.514112   3.074748   2.535735   1.083939
                    6          7          8
     6  H    0.000000
     7  H    1.754952   0.000000
     8  H    1.754958   1.754968   0.000000
 Symmetry turned off by external request.
 Stoichiometry    C2H6
 Framework group  C1[X(C2H6)]
 Deg. of freedom    18
 Full point group                 C1      NOp   1
 Rotational constants (GHZ):          81.4081778          19.8467592          19.8467187
 Standard basis: 3-21G (6D, 7F)
    30 basis functions,    48 primitive gaussians,    30 cartesian basis functions
     9 alpha electrons        9 beta electrons
       nuclear repulsion energy        42.2572071844 Hartrees.
 NAtoms=    8 NActive=    8 NUniq=    8 SFac= 1.00D+00 NAtFMM=   60 NAOKFM=F Big=F
 Integral buffers will be    131072 words long.
 Raffenetti 1 integral format.
 Two-electron integral symmetry is turned off.
 One-electron integrals computed using PRISM.
 NBasis=    30 RedAO= T EigKep=  1.89D-02  NBF=    30
 NBsUse=    30 1.00D-06 EigRej= -1.00D+00 NBFU=    30
 Initial guess from the checkpoint file:  "/scratch/10711855.yak.local/Gau-16149.chk"
 B after Tr=    -0.000009   -0.000006   -0.000020
         Rot=    1.000000   -0.000004   -0.000003   -0.000007 Ang=  -0.00 deg.
 ExpMin= 1.83D-01 ExpMax= 1.72D+02 ExpMxC= 1.72D+02 IAcc=2 IRadAn=         4 AccDes= 0.00D+00
 Harris functional with IExCor=  205 and IRadAn=       4 diagonalized for initial guess.
 HarFok:  IExCor=  205 AccDes= 0.00D+00 IRadAn=         4 IDoV= 1 UseB2=F ITyADJ=14
 ICtDFT=  3500011 ScaDFX=  1.000000  1.000000  1.000000  1.000000
 FoFCou: FMM=F IPFlag=           0 FMFlag=      100000 FMFlg1=           0
         NFxFlg=           0 DoJE=T BraDBF=F KetDBF=T FulRan=T
         wScrn=  0.000000 ICntrl=       500 IOpCl=  0 I1Cent=   200000004 NGrid=           0
         NMat0=    1 NMatS0=      1 NMatT0=    0 NMatD0=    1 NMtDS0=    0 NMtDT0=    0
 Symmetry not used in FoFCou.
 Keep R1 ints in memory in canonical form, NReq=2523265.
 Requested convergence on RMS density matrix=1.00D-08 within 128 cycles.
 Requested convergence on MAX density matrix=1.00D-06.
 Requested convergence on             energy=1.00D-06.
 No special actions if energy rises.
 SCF Done:  E(RHF) =  -78.7939380986     A.U. after    7 cycles
            NFock=  7  Conv=0.35D-08     -V/T= 2.0019
 Calling FoFJK, ICntrl=      2127 FMM=F ISym2X=0 I1Cent= 0 IOpClX= 0 NMat=1 NMatS=1 NMatT=0.
 -------------------------------------------------------------------
 Center     Atomic                   Forces (Hartrees/Bohr)
 Number     Number              X              Y              Z
 -------------------------------------------------------------------
      1        6          -0.000067609    0.000010702    0.000024198
      2        1           0.000088567    0.000080371    0.000145018
      3        1          -0.000031368    0.000090799   -0.000153857
      4        1          -0.000038245   -0.000178984    0.000007037
      5        6           0.000064537   -0.000012991   -0.000030040
      6        1           0.000066708    0.000056019    0.000166238
      7        1          -0.000023987    0.000123924   -0.000132430
      8        1          -0.000058602   -0.000169840   -0.000026165
 -------------------------------------------------------------------
 Cartesian Forces:  Max     0.000178984 RMS     0.000094416

 GradGradGradGradGradGradGradGradGradGradGradGradGradGradGradGradGradGrad
 Berny optimization.
 Using GEDIIS/GDIIS optimizer.
 FormGI is forming the generalized inverse of G from B-inverse, IUseBI=4.
 Internal  Forces:  Max     0.000145593 RMS     0.000082620
 Search for a local minimum.
 Step number   5 out of a maximum of   38
 All quantities printed in internal units (Hartrees-Bohrs-Radians)
 Mixed Optimization -- En-DIIS/RFO-DIIS
 Swapping is turned off.
 Update second derivatives using D2CorX and points    4    5
 DE= -8.56D-05 DEPred=-1.26D-04 R= 6.80D-01
 TightC=F SS=  1.41D+00  RLast= 3.79D-01 DXNew= 2.4000D+00 1.1356D+00
 Trust test= 6.80D-01 RLast= 3.79D-01 DXMaxT set to 1.43D+00
 ITU=  1  1  1  1  0
     Eigenvalues ---    0.00225   0.05467   0.05468   0.05468   0.05468
     Eigenvalues ---    0.16000   0.16000   0.16000   0.16000   0.16001
     Eigenvalues ---    0.16421   0.26751   0.33150   0.33158   0.33166
     Eigenvalues ---    0.33170   0.33175   0.33559
 En-DIIS/RFO-DIIS/Sim-DIIS IScMMF=       -3 using points:     5    4    3
 RFO step:  Lambda=-1.97206812D-05.
 DidBck=T Rises=F RFO-DIIS coefs:    0.76977    0.21955    0.01068
 Iteration  1 RMS(Cart)=  0.01394984 RMS(Int)=  0.00010636
 Iteration  2 RMS(Cart)=  0.00010981 RMS(Int)=  0.00000012
 Iteration  3 RMS(Cart)=  0.00000001 RMS(Int)=  0.00000012
 Variable       Old X    -DE/DX   Delta X   Delta X   Delta X     New X
                                 (Linear)    (Quad)   (Total)
    R1        2.04832   0.00015   0.00010   0.00029   0.00039   2.04872
    R2        2.04835   0.00013   0.00010   0.00027   0.00036   2.04871
    R3        2.04833   0.00014   0.00010   0.00028   0.00038   2.04872
    R4        2.91483  -0.00005  -0.00022   0.00047   0.00024   2.91507
    R5        2.04832   0.00015   0.00010   0.00029   0.00039   2.04872
    R6        2.04834   0.00014   0.00010   0.00027   0.00038   2.04872
    R7        2.04835   0.00013   0.00010   0.00027   0.00036   2.04871
    A1        1.88671   0.00005   0.00024  -0.00008   0.00016   1.88688
    A2        1.88671   0.00004   0.00024  -0.00008   0.00017   1.88688
    A3        1.93397  -0.00004  -0.00020   0.00007  -0.00013   1.93384
    A4        1.88672   0.00005   0.00023  -0.00008   0.00016   1.88688
    A5        1.93403  -0.00005  -0.00026   0.00004  -0.00021   1.93382
    A6        1.93395  -0.00004  -0.00023   0.00011  -0.00012   1.93383
    A7        1.93397  -0.00004  -0.00020   0.00007  -0.00013   1.93384
    A8        1.93395  -0.00004  -0.00023   0.00011  -0.00012   1.93383
    A9        1.93404  -0.00006  -0.00025   0.00004  -0.00022   1.93382
   A10        1.88671   0.00004   0.00024  -0.00008   0.00017   1.88688
   A11        1.88671   0.00005   0.00024  -0.00008   0.00016   1.88688
   A12        1.88672   0.00005   0.00023  -0.00008   0.00016   1.88688
    D1        1.07797  -0.00007  -0.03149  -0.00003  -0.03152   1.04645
    D2       -3.11086  -0.00007  -0.03147  -0.00001  -0.03147   3.14085
    D3       -1.01645  -0.00007  -0.03149  -0.00001  -0.03150  -1.04795
    D4       -1.01645  -0.00007  -0.03149  -0.00001  -0.03149  -1.04794
    D5        1.07791  -0.00007  -0.03147   0.00002  -0.03145   1.04646
    D6       -3.11086  -0.00007  -0.03149   0.00002  -0.03147   3.14085
    D7       -3.11086  -0.00007  -0.03146  -0.00001  -0.03147   3.14085
    D8       -1.01650  -0.00007  -0.03144   0.00002  -0.03143  -1.04793
    D9        1.07791  -0.00007  -0.03147   0.00001  -0.03145   1.04646
         Item               Value     Threshold  Converged?
 Maximum Force            0.000146     0.000450     YES
 RMS     Force            0.000083     0.000300     YES
 Maximum Displacement     0.028894     0.001800     NO 
 RMS     Displacement     0.013951     0.001200     NO 
 Predicted change in Energy=-9.941925D-06
 GradGradGradGradGradGradGradGradGradGradGradGradGradGradGradGradGradGrad

                          Input orientation:                          
 ---------------------------------------------------------------------
 Center     Atomic      Atomic             Coordinates (Angstroms)
 Number     Number       Type             X           Y           Z
 ---------------------------------------------------------------------
      1          6           0        0.697045   -0.203510   -0.259718
      2          1           0        1.361758   -0.437103    0.564257
      3          1           0        1.143070    0.599740   -0.835212
      4          1           0        0.630245   -1.077924   -0.897122
      5          6           0       -0.697255    0.203542    0.259718
      6          1           0       -0.630367    1.077514    0.897720
      7          1           0       -1.361745    0.437852   -0.564235
      8          1           0       -1.143595   -0.599983    0.834582
 ---------------------------------------------------------------------
                    Distance matrix (angstroms):
                    1          2          3          4          5
     1  C    0.000000
     2  H    1.084134   0.000000
     3  H    1.084132   1.755387   0.000000
     4  H    1.084134   1.755389   1.755386   0.000000
     5  C    1.542588   2.177775   2.177760   2.177772   0.000000
     6  H    2.177776   2.524643   2.525153   3.075144   1.084134
     7  H    2.177771   3.075143   2.524625   2.525156   1.084134
     8  H    2.177761   2.525154   3.075124   2.524626   1.084132
                    6          7          8
     6  H    0.000000
     7  H    1.755389   0.000000
     8  H    1.755387   1.755386   0.000000
 Symmetry turned off by external request.
 Stoichiometry    C2H6
 Framework group  C1[X(C2H6)]
 Deg. of freedom    18
 Full point group                 C1      NOp   1
 Rotational constants (GHZ):          81.3684664          19.8439484          19.8439388
 Standard basis: 3-21G (6D, 7F)
    30 basis functions,    48 primitive gaussians,    30 cartesian basis functions
     9 alpha electrons        9 beta electrons
       nuclear repulsion energy        42.2517799985 Hartrees.
 NAtoms=    8 NActive=    8 NUniq=    8 SFac= 1.00D+00 NAtFMM=   60 NAOKFM=F Big=F
 Integral buffers will be    131072 words long.
 Raffenetti 1 integral format.
 Two-electron integral symmetry is turned off.
 One-electron integrals computed using PRISM.
 NBasis=    30 RedAO= T EigKep=  1.89D-02  NBF=    30
 NBsUse=    30 1.00D-06 EigRej= -1.00D+00 NBFU=    30
 Initial guess from the checkpoint file:  "/scratch/10711855.yak.local/Gau-16149.chk"
 B after Tr=    -0.000001   -0.000001   -0.000002
         Rot=    1.000000    0.000002    0.000001    0.000004 Ang=   0.00 deg.
 ExpMin= 1.83D-01 ExpMax= 1.72D+02 ExpMxC= 1.72D+02 IAcc=2 IRadAn=         4 AccDes= 0.00D+00
 Harris functional with IExCor=  205 and IRadAn=       4 diagonalized for initial guess.
 HarFok:  IExCor=  205 AccDes= 0.00D+00 IRadAn=         4 IDoV= 1 UseB2=F ITyADJ=14
 ICtDFT=  3500011 ScaDFX=  1.000000  1.000000  1.000000  1.000000
 FoFCou: FMM=F IPFlag=           0 FMFlag=      100000 FMFlg1=           0
         NFxFlg=           0 DoJE=T BraDBF=F KetDBF=T FulRan=T
         wScrn=  0.000000 ICntrl=       500 IOpCl=  0 I1Cent=   200000004 NGrid=           0
         NMat0=    1 NMatS0=      1 NMatT0=    0 NMatD0=    1 NMtDS0=    0 NMtDT0=    0
 Symmetry not used in FoFCou.
 Keep R1 ints in memory in canonical form, NReq=2523265.
 Requested convergence on RMS density matrix=1.00D-08 within 128 cycles.
 Requested convergence on MAX density matrix=1.00D-06.
 Requested convergence on             energy=1.00D-06.
 No special actions if energy rises.
 SCF Done:  E(RHF) =  -78.7939479913     A.U. after    6 cycles
            NFock=  6  Conv=0.62D-08     -V/T= 2.0019
 Calling FoFJK, ICntrl=      2127 FMM=F ISym2X=0 I1Cent= 0 IOpClX= 0 NMat=1 NMatS=1 NMatT=0.
 -------------------------------------------------------------------
 Center     Atomic                   Forces (Hartrees/Bohr)
 Number     Number              X              Y              Z
 -------------------------------------------------------------------
      1        6          -0.000038923    0.000013113    0.000013630
      2        1          -0.000023551    0.000003972    0.000009195
      3        1          -0.000019492    0.000008655    0.000009308
      4        1          -0.000023405    0.000007496    0.000006172
      5        6           0.000038778   -0.000013202   -0.000013939
      6        1           0.000023039   -0.000004539   -0.000010408
      7        1           0.000021717   -0.000008837   -0.000009298
      8        1           0.000021837   -0.000006657   -0.000004661
 -------------------------------------------------------------------
 Cartesian Forces:  Max     0.000038923 RMS     0.000017586

 GradGradGradGradGradGradGradGradGradGradGradGradGradGradGradGradGradGrad
 Berny optimization.
 Using GEDIIS/GDIIS optimizer.
 FormGI is forming the generalized inverse of G from B-inverse, IUseBI=4.
 Internal  Forces:  Max     0.000116910 RMS     0.000027134
 Search for a local minimum.
 Step number   6 out of a maximum of   38
 All quantities printed in internal units (Hartrees-Bohrs-Radians)
 Mixed Optimization -- En-DIIS/RFO-DIIS
 Swapping is turned off.
 Update second derivatives using D2CorX and points    4    5    6
 DE= -9.89D-06 DEPred=-9.94D-06 R= 9.95D-01
 TightC=F SS=  1.41D+00  RLast= 9.44D-02 DXNew= 2.4000D+00 2.8328D-01
 Trust test= 9.95D-01 RLast= 9.44D-02 DXMaxT set to 1.43D+00
 ITU=  1  1  1  1  1  0
     Eigenvalues ---    0.00228   0.05469   0.05469   0.05469   0.05470
     Eigenvalues ---    0.16000   0.16000   0.16000   0.16000   0.16001
     Eigenvalues ---    0.16359   0.26831   0.33150   0.33158   0.33166
     Eigenvalues ---    0.33170   0.33175   0.33608
 En-DIIS/RFO-DIIS/Sim-DIIS IScMMF=       -3 using points:     6    5    4    3
 RFO step:  Lambda=-1.03398786D-07.
 DidBck=T Rises=F RFO-DIIS coefs:    0.65977    0.24992    0.09863   -0.00832
 Iteration  1 RMS(Cart)=  0.00055734 RMS(Int)=  0.00000016
 Iteration  2 RMS(Cart)=  0.00000016 RMS(Int)=  0.00000001
 Variable       Old X    -DE/DX   Delta X   Delta X   Delta X     New X
                                 (Linear)    (Quad)   (Total)
    R1        2.04872  -0.00001  -0.00003   0.00000  -0.00002   2.04869
    R2        2.04871  -0.00001  -0.00002  -0.00000  -0.00002   2.04869
    R3        2.04872  -0.00001  -0.00002  -0.00000  -0.00002   2.04869
    R4        2.91507  -0.00012  -0.00031   0.00000  -0.00030   2.91477
    R5        2.04872  -0.00001  -0.00003   0.00000  -0.00002   2.04869
    R6        2.04872  -0.00001  -0.00002  -0.00000  -0.00002   2.04869
    R7        2.04871  -0.00001  -0.00002  -0.00000  -0.00002   2.04869
    A1        1.88688   0.00002   0.00009   0.00000   0.00010   1.88697
    A2        1.88688   0.00002   0.00009  -0.00000   0.00009   1.88697
    A3        1.93384  -0.00002  -0.00009  -0.00001  -0.00010   1.93374
    A4        1.88688   0.00002   0.00009   0.00000   0.00010   1.88697
    A5        1.93382  -0.00002  -0.00008   0.00000  -0.00008   1.93374
    A6        1.93383  -0.00002  -0.00010   0.00000  -0.00010   1.93374
    A7        1.93384  -0.00002  -0.00009  -0.00001  -0.00010   1.93374
    A8        1.93383  -0.00002  -0.00010   0.00001  -0.00009   1.93374
    A9        1.93382  -0.00002  -0.00008  -0.00000  -0.00008   1.93374
   A10        1.88688   0.00002   0.00009  -0.00000   0.00009   1.88697
   A11        1.88688   0.00002   0.00009   0.00000   0.00010   1.88697
   A12        1.88688   0.00002   0.00009   0.00000   0.00010   1.88697
    D1        1.04645   0.00000   0.00121  -0.00000   0.00121   1.04766
    D2        3.14085   0.00000   0.00121  -0.00000   0.00120  -3.14113
    D3       -1.04795   0.00000   0.00121   0.00000   0.00121  -1.04674
    D4       -1.04794   0.00000   0.00121   0.00000   0.00121  -1.04674
    D5        1.04646   0.00000   0.00120   0.00000   0.00120   1.04766
    D6        3.14085   0.00000   0.00120   0.00001   0.00121  -3.14113
    D7        3.14085   0.00000   0.00121  -0.00000   0.00120  -3.14113
    D8       -1.04793   0.00000   0.00120  -0.00001   0.00119  -1.04674
    D9        1.04646   0.00000   0.00120   0.00000   0.00120   1.04766
         Item               Value     Threshold  Converged?
 Maximum Force            0.000117     0.000450     YES
 RMS     Force            0.000027     0.000300     YES
 Maximum Displacement     0.001186     0.001800     YES
 RMS     Displacement     0.000557     0.001200     YES
 Predicted change in Energy=-4.460152D-08
 Optimization completed.
    -- Stationary point found.
                           ----------------------------
                           !   Optimized Parameters   !
                           ! (Angstroms and Degrees)  !
 --------------------------                            --------------------------
 ! Name  Definition              Value          Derivative Info.                !
 --------------------------------------------------------------------------------
 ! R1    R(1,2)                  1.0841         -DE/DX =    0.0                 !
 ! R2    R(1,3)                  1.0841         -DE/DX =    0.0                 !
 ! R3    R(1,4)                  1.0841         -DE/DX =    0.0                 !
 ! R4    R(1,5)                  1.5426         -DE/DX =   -0.0001              !
 ! R5    R(5,6)                  1.0841         -DE/DX =    0.0                 !
 ! R6    R(5,7)                  1.0841         -DE/DX =    0.0                 !
 ! R7    R(5,8)                  1.0841         -DE/DX =    0.0                 !
 ! A1    A(2,1,3)              108.1101         -DE/DX =    0.0                 !
 ! A2    A(2,1,4)              108.1101         -DE/DX =    0.0                 !
 ! A3    A(2,1,5)              110.8007         -DE/DX =    0.0                 !
 ! A4    A(3,1,4)              108.11           -DE/DX =    0.0                 !
 ! A5    A(3,1,5)              110.7997         -DE/DX =    0.0                 !
 ! A6    A(4,1,5)              110.8005         -DE/DX =    0.0                 !
 ! A7    A(1,5,6)              110.8008         -DE/DX =    0.0                 !
 ! A8    A(1,5,7)              110.8004         -DE/DX =    0.0                 !
 ! A9    A(1,5,8)              110.7997         -DE/DX =    0.0                 !
 ! A10   A(6,5,7)              108.1101         -DE/DX =    0.0                 !
 ! A11   A(6,5,8)              108.1101         -DE/DX =    0.0                 !
 ! A12   A(7,5,8)              108.11           -DE/DX =    0.0                 !
 ! D1    D(2,1,5,6)             59.9571         -DE/DX =    0.0                 !
 ! D2    D(2,1,5,7)           -180.0424         -DE/DX =    0.0                 !
 ! D3    D(2,1,5,8)            -60.0428         -DE/DX =    0.0                 !
 ! D4    D(3,1,5,6)            -60.0428         -DE/DX =    0.0                 !
 ! D5    D(3,1,5,7)             59.9577         -DE/DX =    0.0                 !
 ! D6    D(3,1,5,8)           -180.0427         -DE/DX =    0.0                 !
 ! D7    D(4,1,5,6)           -180.0424         -DE/DX =    0.0                 !
 ! D8    D(4,1,5,7)            -60.0419         -DE/DX =    0.0                 !
 ! D9    D(4,1,5,8)             59.9577         -DE/DX =    0.0                 !
 --------------------------------------------------------------------------------
 GradGradGradGradGradGradGradGradGradGradGradGradGradGradGradGradGradGrad

                          Input orientation:                          
 ---------------------------------------------------------------------
 Center     Atomic      Atomic             Coordinates (Angstroms)
 Number     Number       Type             X           Y           Z
 ---------------------------------------------------------------------
      1          6           0        0.697045   -0.203510   -0.259718
      2          1           0        1.361758   -0.437103    0.564257
      3          1           0        1.143070    0.599740   -0.835212
      4          1           0        0.630245   -1.077924   -0.897122
      5          6           0       -0.697255    0.203542    0.259718
      6          1           0       -0.630367    1.077514    0.897720
      7          1           0       -1.361745    0.437852   -0.564235
      8          1           0       -1.143595   -0.599983    0.834582
 ---------------------------------------------------------------------
                    Distance matrix (angstroms):
                    1          2          3          4          5
     1  C    0.000000
     2  H    1.084134   0.000000
     3  H    1.084132   1.755387   0.000000
     4  H    1.084134   1.755389   1.755386   0.000000
     5  C    1.542588   2.177775   2.177760   2.177772   0.000000
     6  H    2.177776   2.524643   2.525153   3.075144   1.084134
     7  H    2.177771   3.075143   2.524625   2.525156   1.084134
     8  H    2.177761   2.525154   3.075124   2.524626   1.084132
                    6          7          8
     6  H    0.000000
     7  H    1.755389   0.000000
     8  H    1.755387   1.755386   0.000000
 Symmetry turned off by external request.
 Stoichiometry    C2H6
 Framework group  C1[X(C2H6)]
 Deg. of freedom    18
 Full point group                 C1      NOp   1
 Rotational constants (GHZ):          81.3684664          19.8439484          19.8439388

 **********************************************************************

            Population analysis using the SCF density.

 **********************************************************************

 Alpha  occ. eigenvalues --  -11.15206 -11.15185  -1.01879  -0.84621  -0.59933
 Alpha  occ. eigenvalues --   -0.59933  -0.50282  -0.48690  -0.48690
 Alpha virt. eigenvalues --    0.27931   0.34035   0.34035   0.34284   0.37087
 Alpha virt. eigenvalues --    0.37087   0.42448   0.90429   0.90429   0.97398
 Alpha virt. eigenvalues --    1.07341   1.08622   1.08623   1.29250   1.36727
 Alpha virt. eigenvalues --    1.36727   1.37252   1.37252   1.45384   1.94078
 Alpha virt. eigenvalues --    2.29628
          Condensed to atoms (all electrons):
               1          2          3          4          5          6
     1  C    5.347275   0.378480   0.378479   0.378480   0.245223  -0.042333
     2  H    0.378480   0.518694  -0.027256  -0.027256  -0.042333  -0.001771
     3  H    0.378479  -0.027256   0.518696  -0.027256  -0.042335  -0.001763
     4  H    0.378480  -0.027256  -0.027256   0.518694  -0.042333   0.002893
     5  C    0.245223  -0.042333  -0.042335  -0.042333   5.347275   0.378480
     6  H   -0.042333  -0.001771  -0.001763   0.002893   0.378480   0.518693
     7  H   -0.042333   0.002893  -0.001771  -0.001763   0.378480  -0.027256
     8  H   -0.042335  -0.001763   0.002894  -0.001771   0.378479  -0.027256
               7          8
     1  C   -0.042333  -0.042335
     2  H    0.002893  -0.001763
     3  H   -0.001771   0.002894
     4  H   -0.001763  -0.001771
     5  C    0.378480   0.378479
     6  H   -0.027256  -0.027256
     7  H    0.518694  -0.027256
     8  H   -0.027256   0.518696
 Mulliken charges:
               1
     1  C   -0.600936
     2  H    0.200312
     3  H    0.200312
     4  H    0.200312
     5  C   -0.600936
     6  H    0.200312
     7  H    0.200312
     8  H    0.200312
 Sum of Mulliken charges =  -0.00000
 Mulliken charges with hydrogens summed into heavy atoms:
               1
     1  C   -0.000000
     5  C    0.000000
 Electronic spatial extent (au):  <R**2>=            110.0231
 Charge=             -0.0000 electrons
 Dipole moment (field-independent basis, Debye):
    X=             -0.0000    Y=             -0.0000    Z=             -0.0000  Tot=              0.0000
 Quadrupole moment (field-independent basis, Debye-Ang):
   XX=            -15.4156   YY=            -15.0639   ZZ=            -15.0845
   XY=              0.1122   XZ=              0.1433   YZ=             -0.0418
 Traceless Quadrupole moment (field-independent basis, Debye-Ang):
   XX=             -0.2277   YY=              0.1241   ZZ=              0.1035
   XY=              0.1122   XZ=              0.1433   YZ=             -0.0418
 Octapole moment (field-independent basis, Debye-Ang**2):
  XXX=              0.0050  YYY=             -0.0018  ZZZ=              0.0001  XYY=              0.0012
  XXY=             -0.0003  XXZ=              0.0002  XZZ=              0.0019  YZZ=              0.0008
  YYZ=             -0.0003  XYZ=              0.0003
 Hexadecapole moment (field-independent basis, Debye-Ang**3):
 XXXX=            -80.2454 YYYY=            -32.3928 ZZZZ=            -36.0302 XXXY=              7.6676
 XXXZ=             10.6582 YYYX=              7.7210 YYYZ=             -1.8645 ZZZX=              9.7676
 ZZZY=             -2.7034 XXYY=            -18.6422 XXZZ=            -18.2817 YYZZ=            -10.1696
 XXYZ=             -2.0859 YYXZ=              2.3660 ZZXY=              2.4718
 N-N= 4.225177999848D+01 E-N=-2.670473858543D+02  KE= 7.864429491858D+01
 1\1\GINC-N019\FOpt\RHF\3-21G\C2H6\JWHATLEY\29-May-2017\0\\#rhf/3-21g n
 osymm opt\\name\\0,1\C,0.6970447863,-0.2035095647,-0.2597184713\H,1.36
 1757836,-0.4371031481,0.5642574157\H,1.1430697171,0.5997404644,-0.8352
 11963\H,0.6302452355,-1.0779240068,-0.8971217118\C,-0.6972550987,0.203
 5424716,0.2597181409\H,-0.6303674676,1.0775135892,0.8977199629\H,-1.36
 17445715,0.4378521042,-0.5642346822\H,-1.1435954271,-0.5999829098,0.83
 45822987\\Version=ES64L-G16RevA.03\HF=-78.793948\RMSD=6.233e-09\RMSF=1
 .759e-05\Dipole=-0.0000005,-0.0000004,-0.000001\Quadrupole=-0.1692605,
 0.0922925,0.076968,0.0834495,0.1065254,-0.0310865\PG=C01 [X(C2H6)]\\@


 MORNING PEOPLE ARE USUALLY ADMIRED AS EARLY BIRDS.
 RECALL BEN FRANKLIN'S APHORISM THAT THE EARLY BIRD GETS THE WORM.
 I IDENTIFY WITH THE WORM. --  CRAIG JAGGER, MINNEAPOLIS, KS.
 Job cpu time:       0 days  0 hours  7 minutes  7.8 seconds.
 Elapsed time:       0 days  0 hours  0 minutes 55.1 seconds.
 File lengths (MBytes):  RWF=      6 Int=      0 D2E=      0 Chk=      1 Scr=      1
 Normal termination of Gaussian 16 at Mon May 29 23:05:03 2017.
