 Entering Gaussian System, Link 0=g09
 Input=min1007.com
 Output=min1007.log
 Initial command:
 /share/apps/g09/l1.exe /state/partition1/singhbh_9392.psi.concordia.ca/Gau-10074.inp -scrdir=/state/partition1/singhbh_9392.psi.concordia.ca/
 Entering Link 1 = /share/apps/g09/l1.exe PID=     10075.
  
 Copyright (c) 1988,1990,1992,1993,1995,1998,2003,2009,2010,
            Gaussian, Inc.  All Rights Reserved.
  
 This is part of the Gaussian(R) 09 program.  It is based on
 the Gaussian(R) 03 system (copyright 2003, Gaussian, Inc.),
 the Gaussian(R) 98 system (copyright 1998, Gaussian, Inc.),
 the Gaussian(R) 94 system (copyright 1995, Gaussian, Inc.),
 the Gaussian 92(TM) system (copyright 1992, Gaussian, Inc.),
 the Gaussian 90(TM) system (copyright 1990, Gaussian, Inc.),
 the Gaussian 88(TM) system (copyright 1988, Gaussian, Inc.),
 the Gaussian 86(TM) system (copyright 1986, Carnegie Mellon
 University), and the Gaussian 82(TM) system (copyright 1983,
 Carnegie Mellon University). Gaussian is a federally registered
 trademark of Gaussian, Inc.
  
 This software contains proprietary and confidential information,
 including trade secrets, belonging to Gaussian, Inc.
  
 This software is provided under written license and may be
 used, copied, transmitted, or stored only in accord with that
 written license.
  
 The following legend is applicable only to US Government
 contracts under FAR:
  
                    RESTRICTED RIGHTS LEGEND
  
 Use, reproduction and disclosure by the US Government is
 subject to restrictions as set forth in subparagraphs (a)
 and (c) of the Commercial Computer Software - Restricted
 Rights clause in FAR 52.227-19.
  
 Gaussian, Inc.
 340 Quinnipiac St., Bldg. 40, Wallingford CT 06492
  
  
 ---------------------------------------------------------------
 Warning -- This program may not be used in any manner that
 competes with the business of Gaussian, Inc. or will provide
 assistance to any competitor of Gaussian, Inc.  The licensee
 of this program is prohibited from giving any competitor of
 Gaussian, Inc. access to this program.  By using this program,
 the user acknowledges that Gaussian, Inc. is engaged in the
 business of creating and licensing software in the field of
 computational chemistry and represents and warrants to the
 licensee that it is not a competitor of Gaussian, Inc. and that
 it will not use this program in any manner prohibited above.
 ---------------------------------------------------------------
  

 Cite this work as:
 Gaussian 09, Revision B.01,
 M. J. Frisch, G. W. Trucks, H. B. Schlegel, G. E. Scuseria, 
 M. A. Robb, J. R. Cheeseman, G. Scalmani, V. Barone, B. Mennucci, 
 G. A. Petersson, H. Nakatsuji, M. Caricato, X. Li, H. P. Hratchian, 
 A. F. Izmaylov, J. Bloino, G. Zheng, J. L. Sonnenberg, M. Hada, 
 M. Ehara, K. Toyota, R. Fukuda, J. Hasegawa, M. Ishida, T. Nakajima, 
 Y. Honda, O. Kitao, H. Nakai, T. Vreven, J. A. Montgomery, Jr., 
 J. E. Peralta, F. Ogliaro, M. Bearpark, J. J. Heyd, E. Brothers, 
 K. N. Kudin, V. N. Staroverov, T. Keith, R. Kobayashi, J. Normand, 
 K. Raghavachari, A. Rendell, J. C. Burant, S. S. Iyengar, J. Tomasi, 
 M. Cossi, N. Rega, J. M. Millam, M. Klene, J. E. Knox, J. B. Cross, 
 V. Bakken, C. Adamo, J. Jaramillo, R. Gomperts, R. E. Stratmann, 
 O. Yazyev, A. J. Austin, R. Cammi, C. Pomelli, J. W. Ochterski, 
 R. L. Martin, K. Morokuma, V. G. Zakrzewski, G. A. Voth, 
 P. Salvador, J. J. Dannenberg, S. Dapprich, A. D. Daniels, 
 O. Farkas, J. B. Foresman, J. V. Ortiz, J. Cioslowski, 
 and D. J. Fox, Gaussian, Inc., Wallingford CT, 2010.
 
 ******************************************
 Gaussian 09:  EM64L-G09RevB.01 12-Aug-2010
                 8-Jul-2017 
 ******************************************
 %chk = min1007.chk
 -------------------
 # opt freq hf/6-31g
 -------------------
 1/18=20,19=15,38=1/1,3;
 2/9=110,12=2,17=6,18=5,40=1/2;
 3/5=1,6=6,11=9,16=1,25=1,30=1,71=1/1,2,3;
 4//1;
 5/5=2,38=5/2;
 6/7=2,8=2,9=2,10=2,28=1/1;
 7//1,2,3,16;
 1/18=20,19=15/3(2);
 2/9=110/2;
 99//99;
 2/9=110/2;
 3/5=1,6=6,11=9,16=1,25=1,30=1,71=1/1,2,3;
 4/5=5,16=3/1;
 5/5=2,38=5/2;
 7//1,2,3,16;
 1/18=20,19=15/3(-5);
 2/9=110/2;
 6/7=2,8=2,9=2,10=2,19=2,28=1/1;
 99/9=1/99;
 -------------------
 Ethane Optimization
 -------------------
 Symbolic Z-matrix:
 Charge =  0 Multiplicity = 1
 6                     0.76036   0.03782  -0.12238 
 1                     1.28941  -0.64912   0.52813 
 1                     1.13172   1.03785   0.06989 
 1                     0.99818  -0.21864  -1.14836 
 6                    -0.76057  -0.03781   0.12239 
 1                    -1.2895    0.64977  -0.52754 
 1                    -1.13212  -1.03761  -0.07071 
 1                    -0.99832   0.21785   1.14858 
 

 GradGradGradGradGradGradGradGradGradGradGradGradGradGradGradGradGradGrad
 Berny optimization.
 Initialization pass.
                           ----------------------------
                           !    Initial Parameters    !
                           ! (Angstroms and Degrees)  !
 --------------------------                            --------------------------
 ! Name  Definition              Value          Derivative Info.                !
 --------------------------------------------------------------------------------
 ! R1    R(1,2)                  1.0839         estimate D2E/DX2                !
 ! R2    R(1,3)                  1.084          estimate D2E/DX2                !
 ! R3    R(1,4)                  1.0839         estimate D2E/DX2                !
 ! R4    R(1,5)                  1.5424         estimate D2E/DX2                !
 ! R5    R(5,6)                  1.084          estimate D2E/DX2                !
 ! R6    R(5,7)                  1.0839         estimate D2E/DX2                !
 ! R7    R(5,8)                  1.0839         estimate D2E/DX2                !
 ! A1    A(2,1,3)              108.1201         estimate D2E/DX2                !
 ! A2    A(2,1,4)              108.1204         estimate D2E/DX2                !
 ! A3    A(2,1,5)              110.7922         estimate D2E/DX2                !
 ! A4    A(3,1,4)              108.1196         estimate D2E/DX2                !
 ! A5    A(3,1,5)              110.7888         estimate D2E/DX2                !
 ! A6    A(4,1,5)              110.7914         estimate D2E/DX2                !
 ! A7    A(1,5,6)              110.7888         estimate D2E/DX2                !
 ! A8    A(1,5,7)              110.7915         estimate D2E/DX2                !
 ! A9    A(1,5,8)              110.7919         estimate D2E/DX2                !
 ! A10   A(6,5,7)              108.1198         estimate D2E/DX2                !
 ! A11   A(6,5,8)              108.1198         estimate D2E/DX2                !
 ! A12   A(7,5,8)              108.1205         estimate D2E/DX2                !
 ! D1    D(2,1,5,6)            179.9509         estimate D2E/DX2                !
 ! D2    D(2,1,5,7)            -60.0502         estimate D2E/DX2                !
 ! D3    D(2,1,5,8)             59.9517         estimate D2E/DX2                !
 ! D4    D(3,1,5,6)             59.9512         estimate D2E/DX2                !
 ! D5    D(3,1,5,7)            179.9501         estimate D2E/DX2                !
 ! D6    D(3,1,5,8)            -60.048          estimate D2E/DX2                !
 ! D7    D(4,1,5,6)            -60.0474         estimate D2E/DX2                !
 ! D8    D(4,1,5,7)             59.9515         estimate D2E/DX2                !
 ! D9    D(4,1,5,8)            179.9534         estimate D2E/DX2                !
 --------------------------------------------------------------------------------
 Trust Radius=3.00D-01 FncErr=1.00D-07 GrdErr=1.00D-07
 Number of steps in this run=     38 maximum allowed number of steps=    100.
 GradGradGradGradGradGradGradGradGradGradGradGradGradGradGradGradGradGrad

                          Input orientation:                          
 ---------------------------------------------------------------------
 Center     Atomic      Atomic             Coordinates (Angstroms)
 Number     Number       Type             X           Y           Z
 ---------------------------------------------------------------------
      1          6           0        0.760358    0.037817   -0.122384
      2          1           0        1.289406   -0.649118    0.528127
      3          1           0        1.131719    1.037855    0.069887
      4          1           0        0.998175   -0.218635   -1.148356
      5          6           0       -0.760567   -0.037807    0.122393
      6          1           0       -1.289496    0.649773   -0.527544
      7          1           0       -1.132120   -1.037607   -0.070708
      8          1           0       -0.998320    0.217851    1.148575
 ---------------------------------------------------------------------
                    Distance matrix (angstroms):
                    1          2          3          4          5
     1  C    0.000000
     2  H    1.083945   0.000000
     3  H    1.083953   1.755200   0.000000
     4  H    1.083948   1.755200   1.755197   0.000000
     5  C    1.542351   2.177317   2.177281   2.177309   0.000000
     6  H    2.177280   3.074458   2.523849   2.524476   1.083951
     7  H    2.177310   2.524543   3.074455   2.523925   1.083946
     8  H    2.177314   2.523942   2.524488   3.074476   1.083945
                    6          7          8
     6  H    0.000000
     7  H    1.755197   0.000000
     8  H    1.755197   1.755200   0.000000
 This structure is nearly, but not quite of a higher symmetry.
 Consider Symm=Loose if the higher symmetry is desired.
 Stoichiometry    C2H6
 Framework group  C1[X(C2H6)]
 Deg. of freedom    18
 Full point group                 C1      NOp   1
 Largest Abelian subgroup         C1      NOp   1
 Largest concise Abelian subgroup C1      NOp   1
                         Standard orientation:                         
 ---------------------------------------------------------------------
 Center     Atomic      Atomic             Coordinates (Angstroms)
 Number     Number       Type             X           Y           Z
 ---------------------------------------------------------------------
      1          6           0        0.017376   -0.289191    0.714688
      2          1           0        0.947983   -0.036273    1.209601
      3          1           0       -0.071207   -1.369336    0.694895
      4          1           0       -0.798670    0.105136    1.309262
      5          6           0       -0.017367    0.289198   -0.714685
      6          1           0       -0.947639    0.035517   -1.209853
      7          1           0        0.070333    1.369409   -0.694895
      8          1           0        0.799151   -0.104496   -1.309025
 ---------------------------------------------------------------------
 Rotational constants (GHZ):     81.3859736     19.8517213     19.8517194
 Standard basis: 6-31G (6D, 7F)
 There are    30 symmetry adapted basis functions of A   symmetry.
 Integral buffers will be    131072 words long.
 Raffenetti 1 integral format.
 Two-electron integral symmetry is turned on.
    30 basis functions,    68 primitive gaussians,    30 cartesian basis functions
     9 alpha electrons        9 beta electrons
       nuclear repulsion energy        42.2592034067 Hartrees.
 NAtoms=    8 NActive=    8 NUniq=    8 SFac= 1.00D+00 NAtFMM=   50 NAOKFM=F Big=F
 One-electron integrals computed using PRISM.
 NBasis=    30 RedAO= T  NBF=    30
 NBsUse=    30 1.00D-06 NBFU=    30
 Harris functional with IExCor=  205 diagonalized for initial guess.
 ExpMin= 1.61D-01 ExpMax= 3.05D+03 ExpMxC= 4.57D+02 IAcc=1 IRadAn=         1 AccDes= 0.00D+00
 HarFok:  IExCor=  205 AccDes= 0.00D+00 IRadAn=         1 IDoV= 1
 ScaDFX=  1.000000  1.000000  1.000000  1.000000
 FoFCou: FMM=F IPFlag=           0 FMFlag=      100000 FMFlg1=           0
         NFxFlg=           0 DoJE=T BraDBF=F KetDBF=T FulRan=T
         Omega=  0.000000  0.000000  1.000000  0.000000  0.000000 ICntrl=     500 IOpCl=  0
         NMat0=    1 NMatS0=    1 NMatT0=    0 NMatD0=    1 NMtDS0=    0 NMtDT0=    0
         I1Cent=           4 NGrid=           0.
 Petite list used in FoFCou.
 Initial guess orbital symmetries:
       Occupied  (A) (A) (A) (A) (A) (A) (A) (A) (A)
       Virtual   (A) (A) (A) (A) (A) (A) (A) (A) (A) (A) (A) (A)
                 (A) (A) (A) (A) (A) (A) (A) (A) (A)
 The electronic state of the initial guess is 1-A.
 Requested convergence on RMS density matrix=1.00D-08 within 128 cycles.
 Requested convergence on MAX density matrix=1.00D-06.
 Requested convergence on             energy=1.00D-06.
 No special actions if energy rises.
 Keep R1 ints in memory in canonical form, NReq=929629.
 SCF Done:  E(RHF) =  -79.1974723245     A.U. after    9 cycles
             Convg  =    0.1452D-08             -V/T =  1.9984

 **********************************************************************

            Population analysis using the SCF density.

 **********************************************************************

 Orbital symmetries:
       Occupied  (A) (A) (A) (A) (A) (A) (A) (A) (A)
       Virtual   (A) (A) (A) (A) (A) (A) (A) (A) (A) (A) (A) (A)
                 (A) (A) (A) (A) (A) (A) (A) (A) (A)
 The electronic state is 1-A.
 Alpha  occ. eigenvalues --  -11.21134 -11.21080  -1.02021  -0.84802  -0.59815
 Alpha  occ. eigenvalues --   -0.59815  -0.50210  -0.48714  -0.48714
 Alpha virt. eigenvalues --    0.24124   0.30120   0.31717   0.31717   0.33635
 Alpha virt. eigenvalues --    0.33635   0.40161   0.74264   0.75684   0.75684
 Alpha virt. eigenvalues --    0.85988   0.85989   0.94575   1.21899   1.21899
 Alpha virt. eigenvalues --    1.22115   1.26617   1.26617   1.26729   1.31157
 Alpha virt. eigenvalues --    1.69687
          Condensed to atoms (all electrons):
              1          2          3          4          5          6
     1  C    5.127936   0.389829   0.389830   0.389830   0.279646  -0.041506
     2  H    0.389829   0.565041  -0.031317  -0.031317  -0.041500   0.004021
     3  H    0.389830  -0.031317   0.565050  -0.031318  -0.041506  -0.002813
     4  H    0.389830  -0.031317  -0.031318   0.565043  -0.041501  -0.002801
     5  C    0.279646  -0.041500  -0.041506  -0.041501   5.127936   0.389831
     6  H   -0.041506   0.004021  -0.002813  -0.002801   0.389831   0.565050
     7  H   -0.041501  -0.002800   0.004021  -0.002812   0.389829  -0.031318
     8  H   -0.041500  -0.002812  -0.002801   0.004021   0.389830  -0.031318
              7          8
     1  C   -0.041501  -0.041500
     2  H   -0.002800  -0.002812
     3  H    0.004021  -0.002801
     4  H   -0.002812   0.004021
     5  C    0.389829   0.389830
     6  H   -0.031318  -0.031318
     7  H    0.565043  -0.031317
     8  H   -0.031317   0.565041
 Mulliken atomic charges:
              1
     1  C   -0.452563
     2  H    0.150855
     3  H    0.150853
     4  H    0.150855
     5  C   -0.452563
     6  H    0.150853
     7  H    0.150854
     8  H    0.150855
 Sum of Mulliken atomic charges =   0.00000
 Mulliken charges with hydrogens summed into heavy atoms:
              1
     1  C    0.000000
     5  C    0.000000
 Sum of Mulliken charges with hydrogens summed into heavy atoms =   0.00000
 Electronic spatial extent (au):  <R**2>=            110.0350
 Charge=              0.0000 electrons
 Dipole moment (field-independent basis, Debye):
    X=              0.0000    Y=              0.0000    Z=              0.0000  Tot=              0.0000
 Quadrupole moment (field-independent basis, Debye-Ang):
   XX=            -15.0238   YY=            -15.1008   ZZ=            -15.4957
   XY=              0.0047   XZ=             -0.0115   YZ=              0.1911
 Traceless Quadrupole moment (field-independent basis, Debye-Ang):
   XX=              0.1830   YY=              0.1059   ZZ=             -0.2890
   XY=              0.0047   XZ=             -0.0115   YZ=              0.1911
 Octapole moment (field-independent basis, Debye-Ang**2):
  XXX=              0.0011  YYY=              0.0003  ZZZ=              0.0001  XYY=             -0.0010
  XXY=             -0.0003  XXZ=             -0.0001  XZZ=              0.0000  YZZ=              0.0001
  YYZ=              0.0000  XYZ=             -0.0004
 Hexadecapole moment (field-independent basis, Debye-Ang**3):
 XXXX=            -28.8125 YYYY=            -35.9930 ZZZZ=            -84.3669 XXXY=              0.1996
 XXXZ=             -0.2954 YYYX=              0.5331 YYYZ=             10.2211 ZZZX=             -0.8981
 ZZZY=             11.6596 XXYY=            -11.7860 XXZZ=            -17.4086 YYZZ=            -20.7626
 XXYZ=              4.2472 YYXZ=             -0.3762 ZZXY=             -0.0976
 N-N= 4.225920340671D+01 E-N=-2.683120985281D+02  KE= 7.932483672162D+01
 Calling FoFJK, ICntrl=      2127 FMM=F ISym2X=0 I1Cent= 0 IOpClX= 0 NMat=1 NMatS=1 NMatT=0.
 ***** Axes restored to original set *****
 -------------------------------------------------------------------
 Center     Atomic                   Forces (Hartrees/Bohr)
 Number     Number              X              Y              Z
 -------------------------------------------------------------------
      1        6          -0.007706516   -0.000375380    0.001242317
      2        1           0.000694639    0.000180089   -0.000266806
      3        1           0.000730174   -0.000173540   -0.000167651
      4        1           0.000754599    0.000095613    0.000084872
      5        6           0.007705975    0.000384854   -0.001247916
      6        1          -0.000696525   -0.000188087    0.000265809
      7        1          -0.000727445    0.000167535    0.000173636
      8        1          -0.000754901   -0.000091083   -0.000084261
 -------------------------------------------------------------------
 Cartesian Forces:  Max     0.007706516 RMS     0.002288461

 GradGradGradGradGradGradGradGradGradGradGradGradGradGradGradGradGradGrad
 Berny optimization.
 Internal  Forces:  Max     0.005605398 RMS     0.001171892
 Search for a local minimum.
 Step number   1 out of a maximum of   38
 All quantities printed in internal units (Hartrees-Bohrs-Radians)
 Mixed Optimization -- RFO/linear search
 Second derivative matrix not updated -- first step.
 ITU=  0
     Eigenvalues ---    0.00230   0.05471   0.05471   0.05471   0.05471
     Eigenvalues ---    0.16000   0.16000   0.16000   0.16000   0.16000
     Eigenvalues ---    0.16000   0.28312   0.35521   0.35521   0.35522
     Eigenvalues ---    0.35522   0.35522   0.35522
 RFO step:  Lambda=-1.54764529D-04 EMin= 2.30000000D-03
 Linear search not attempted -- first point.
 Iteration  1 RMS(Cart)=  0.00308134 RMS(Int)=  0.00001347
 Iteration  2 RMS(Cart)=  0.00001550 RMS(Int)=  0.00000689
 Iteration  3 RMS(Cart)=  0.00000000 RMS(Int)=  0.00000689
 Variable       Old X    -DE/DX   Delta X   Delta X   Delta X     New X
                                 (Linear)    (Quad)   (Total)
    R1        2.04836   0.00006   0.00000   0.00018   0.00018   2.04854
    R2        2.04837   0.00006   0.00000   0.00017   0.00017   2.04854
    R3        2.04836   0.00006   0.00000   0.00018   0.00018   2.04854
    R4        2.91462  -0.00561   0.00000  -0.01979  -0.01979   2.89483
    R5        2.04837   0.00006   0.00000   0.00017   0.00017   2.04854
    R6        2.04836   0.00006   0.00000   0.00018   0.00018   2.04854
    R7        2.04836   0.00006   0.00000   0.00018   0.00018   2.04854
    A1        1.88705  -0.00078   0.00000  -0.00488  -0.00489   1.88216
    A2        1.88706  -0.00078   0.00000  -0.00489  -0.00490   1.88216
    A3        1.93369   0.00074   0.00000   0.00464   0.00463   1.93832
    A4        1.88704  -0.00078   0.00000  -0.00487  -0.00488   1.88216
    A5        1.93363   0.00075   0.00000   0.00470   0.00469   1.93831
    A6        1.93367   0.00074   0.00000   0.00464   0.00463   1.93831
    A7        1.93363   0.00075   0.00000   0.00469   0.00468   1.93831
    A8        1.93368   0.00075   0.00000   0.00465   0.00464   1.93832
    A9        1.93368   0.00074   0.00000   0.00463   0.00462   1.93831
   A10        1.88705  -0.00078   0.00000  -0.00488  -0.00489   1.88216
   A11        1.88705  -0.00078   0.00000  -0.00488  -0.00489   1.88216
   A12        1.88706  -0.00078   0.00000  -0.00489  -0.00490   1.88216
    D1        3.14073   0.00000   0.00000   0.00078   0.00078   3.14152
    D2       -1.04807   0.00000   0.00000   0.00081   0.00081  -1.04727
    D3        1.04635   0.00000   0.00000   0.00077   0.00077   1.04713
    D4        1.04635   0.00000   0.00000   0.00078   0.00078   1.04712
    D5        3.14072   0.00000   0.00000   0.00080   0.00080   3.14152
    D6       -1.04804   0.00000   0.00000   0.00077   0.00077  -1.04727
    D7       -1.04802   0.00000   0.00000   0.00075   0.00075  -1.04727
    D8        1.04635   0.00000   0.00000   0.00078   0.00078   1.04713
    D9        3.14078   0.00000   0.00000   0.00074   0.00074   3.14152
         Item               Value     Threshold  Converged?
 Maximum Force            0.005605     0.000450     NO 
 RMS     Force            0.001172     0.000300     NO 
 Maximum Displacement     0.009757     0.001800     NO 
 RMS     Displacement     0.003089     0.001200     NO 
 Predicted change in Energy=-7.743407D-05
 GradGradGradGradGradGradGradGradGradGradGradGradGradGradGradGradGradGrad

                          Input orientation:                          
 ---------------------------------------------------------------------
 Center     Atomic      Atomic             Coordinates (Angstroms)
 Number     Number       Type             X           Y           Z
 ---------------------------------------------------------------------
      1          6           0        0.755195    0.037574   -0.121551
      2          1           0        1.288614   -0.648233    0.526738
      3          1           0        1.131338    1.036076    0.069913
      4          1           0        0.997886   -0.217821   -1.146744
      5          6           0       -0.755406   -0.037544    0.121550
      6          1           0       -1.288815    0.648318   -0.526691
      7          1           0       -1.131566   -1.036025   -0.069984
      8          1           0       -0.998092    0.217783    1.146760
 ---------------------------------------------------------------------
                    Distance matrix (angstroms):
                    1          2          3          4          5
     1  C    0.000000
     2  H    1.084041   0.000000
     3  H    1.084042   1.752233   0.000000
     4  H    1.084041   1.752232   1.752233   0.000000
     5  C    1.531880   2.171436   2.171435   2.171428   0.000000
     6  H    2.171433   3.071464   2.522585   2.522630   1.084042
     7  H    2.171437   2.522643   3.071467   2.522585   1.084041
     8  H    2.171429   2.522585   2.522633   3.071455   1.084041
                    6          7          8
     6  H    0.000000
     7  H    1.752233   0.000000
     8  H    1.752233   1.752232   0.000000
 Stoichiometry    C2H6
 Framework group  C1[X(C2H6)]
 Deg. of freedom    18
 Full point group                 C1      NOp   1
 Largest Abelian subgroup         C1      NOp   1
 Largest concise Abelian subgroup C1      NOp   1
                         Standard orientation:                         
 ---------------------------------------------------------------------
 Center     Atomic      Atomic             Coordinates (Angstroms)
 Number     Number       Type             X           Y           Z
 ---------------------------------------------------------------------
      1          6           0       -0.765940   -0.000001    0.000000
      2          1           0       -1.155440   -0.909573   -0.442846
      3          1           0       -1.155437    0.838306   -0.566288
      4          1           0       -1.155428    0.071269    1.009141
      5          6           0        0.765940    0.000000    0.000000
      6          1           0        1.155435    0.909608    0.442781
      7          1           0        1.155441   -0.838263    0.566348
      8          1           0        1.155429   -0.071341   -1.009135
 ---------------------------------------------------------------------
 Rotational constants (GHZ):     81.6617307     20.0172759     20.0172742
 Standard basis: 6-31G (6D, 7F)
 There are    30 symmetry adapted basis functions of A   symmetry.
 Integral buffers will be    131072 words long.
 Raffenetti 1 integral format.
 Two-electron integral symmetry is turned on.
    30 basis functions,    68 primitive gaussians,    30 cartesian basis functions
     9 alpha electrons        9 beta electrons
       nuclear repulsion energy        42.3701254402 Hartrees.
 NAtoms=    8 NActive=    8 NUniq=    8 SFac= 1.00D+00 NAtFMM=   50 NAOKFM=F Big=F
 One-electron integrals computed using PRISM.
 NBasis=    30 RedAO= T  NBF=    30
 NBsUse=    30 1.00D-06 NBFU=    30
 Initial guess read from the read-write file.
 B after Tr=     0.000000    0.000000    0.000000
         Rot=    1.000000    0.000000    0.000000    0.000000 Ang=   0.00 deg.
 Initial guess orbital symmetries:
       Occupied  (A) (A) (A) (A) (A) (A) (A) (A) (A)
       Virtual   (A) (A) (A) (A) (A) (A) (A) (A) (A) (A) (A) (A)
                 (A) (A) (A) (A) (A) (A) (A) (A) (A)
 Requested convergence on RMS density matrix=1.00D-08 within 128 cycles.
 Requested convergence on MAX density matrix=1.00D-06.
 Requested convergence on             energy=1.00D-06.
 No special actions if energy rises.
 Keep R1 ints in memory in canonical form, NReq=929629.
 SCF Done:  E(RHF) =  -79.1975658388     A.U. after   11 cycles
             Convg  =    0.8318D-08             -V/T =  1.9982
 Calling FoFJK, ICntrl=      2127 FMM=F ISym2X=0 I1Cent= 0 IOpClX= 0 NMat=1 NMatS=1 NMatT=0.
 ***** Axes restored to original set *****
 -------------------------------------------------------------------
 Center     Atomic                   Forces (Hartrees/Bohr)
 Number     Number              X              Y              Z
 -------------------------------------------------------------------
      1        6          -0.001737904   -0.000086286    0.000278394
      2        1           0.000395868   -0.000029433   -0.000013422
      3        1           0.000384959    0.000085592   -0.000044570
      4        1           0.000376972    0.000000670   -0.000128313
      5        6           0.001737815    0.000087420   -0.000279018
      6        1          -0.000395878    0.000028472    0.000013721
      7        1          -0.000384806   -0.000086338    0.000044881
      8        1          -0.000377026   -0.000000097    0.000128328
 -------------------------------------------------------------------
 Cartesian Forces:  Max     0.001737904 RMS     0.000546141

 GradGradGradGradGradGradGradGradGradGradGradGradGradGradGradGradGradGrad
 Berny optimization.
 Using GEDIIS/GDIIS optimizer.
 Internal  Forces:  Max     0.000588105 RMS     0.000265697
 Search for a local minimum.
 Step number   2 out of a maximum of   38
 All quantities printed in internal units (Hartrees-Bohrs-Radians)
 Mixed Optimization -- En-DIIS/RFO-DIIS
 Update second derivatives using D2CorX and points    1    2
 DE= -9.35D-05 DEPred=-7.74D-05 R= 1.21D+00
 SS=  1.41D+00  RLast= 2.59D-02 DXNew= 5.0454D-01 7.7678D-02
 Trust test= 1.21D+00 RLast= 2.59D-02 DXMaxT set to 3.00D-01
 ITU=  1  0
 Use linear search instead of GDIIS.
     Eigenvalues ---    0.00230   0.05422   0.05422   0.05422   0.05422
     Eigenvalues ---    0.12374   0.16000   0.16000   0.16000   0.16000
     Eigenvalues ---    0.16000   0.28754   0.35521   0.35521   0.35522
     Eigenvalues ---    0.35522   0.35522   0.36112
 RFO step:  Lambda=-6.46550188D-06 EMin= 2.30002695D-03
 Quartic linear search produced a step of  0.24565.
 Iteration  1 RMS(Cart)=  0.00191821 RMS(Int)=  0.00000513
 Iteration  2 RMS(Cart)=  0.00000350 RMS(Int)=  0.00000399
 Iteration  3 RMS(Cart)=  0.00000000 RMS(Int)=  0.00000399
 Variable       Old X    -DE/DX   Delta X   Delta X   Delta X     New X
                                 (Linear)    (Quad)   (Total)
    R1        2.04854   0.00021   0.00004   0.00068   0.00073   2.04927
    R2        2.04854   0.00020   0.00004   0.00068   0.00072   2.04927
    R3        2.04854   0.00021   0.00004   0.00068   0.00073   2.04927
    R4        2.89483  -0.00059  -0.00486   0.00154  -0.00332   2.89151
    R5        2.04854   0.00020   0.00004   0.00068   0.00072   2.04927
    R6        2.04854   0.00021   0.00004   0.00068   0.00073   2.04927
    R7        2.04854   0.00021   0.00004   0.00068   0.00073   2.04927
    A1        1.88216  -0.00035  -0.00120  -0.00167  -0.00288   1.87928
    A2        1.88216  -0.00035  -0.00120  -0.00167  -0.00288   1.87928
    A3        1.93832   0.00033   0.00114   0.00158   0.00271   1.94103
    A4        1.88216  -0.00035  -0.00120  -0.00167  -0.00288   1.87928
    A5        1.93831   0.00033   0.00115   0.00157   0.00271   1.94103
    A6        1.93831   0.00033   0.00114   0.00159   0.00273   1.94103
    A7        1.93831   0.00033   0.00115   0.00157   0.00272   1.94103
    A8        1.93832   0.00033   0.00114   0.00157   0.00271   1.94103
    A9        1.93831   0.00033   0.00114   0.00160   0.00273   1.94103
   A10        1.88216  -0.00035  -0.00120  -0.00167  -0.00288   1.87928
   A11        1.88216  -0.00035  -0.00120  -0.00167  -0.00288   1.87928
   A12        1.88216  -0.00035  -0.00120  -0.00167  -0.00288   1.87928
    D1        3.14152   0.00000   0.00019  -0.00055  -0.00035   3.14117
    D2       -1.04727   0.00000   0.00020  -0.00056  -0.00036  -1.04763
    D3        1.04713   0.00000   0.00019  -0.00055  -0.00036   1.04677
    D4        1.04712   0.00000   0.00019  -0.00054  -0.00035   1.04677
    D5        3.14152   0.00000   0.00020  -0.00055  -0.00035   3.14117
    D6       -1.04727   0.00000   0.00019  -0.00054  -0.00035  -1.04762
    D7       -1.04727   0.00000   0.00018  -0.00054  -0.00035  -1.04762
    D8        1.04713   0.00000   0.00019  -0.00055  -0.00036   1.04677
    D9        3.14152   0.00000   0.00018  -0.00054  -0.00036   3.14117
         Item               Value     Threshold  Converged?
 Maximum Force            0.000588     0.000450     NO 
 RMS     Force            0.000266     0.000300     YES
 Maximum Displacement     0.003964     0.001800     NO 
 RMS     Displacement     0.001918     0.001200     NO 
 Predicted change in Energy=-7.268409D-06
 GradGradGradGradGradGradGradGradGradGradGradGradGradGradGradGradGradGrad

                          Input orientation:                          
 ---------------------------------------------------------------------
 Center     Atomic      Atomic             Coordinates (Angstroms)
 Number     Number       Type             X           Y           Z
 ---------------------------------------------------------------------
      1          6           0        0.754327    0.037531   -0.121415
      2          1           0        1.290496   -0.647517    0.526050
      3          1           0        1.133291    1.035535    0.069246
      4          1           0        0.999984   -0.217704   -1.146349
      5          6           0       -0.754538   -0.037498    0.121413
      6          1           0       -1.290676    0.647857   -0.525753
      7          1           0       -1.133572   -1.035398   -0.069661
      8          1           0       -1.000156    0.217322    1.146458
 ---------------------------------------------------------------------
                    Distance matrix (angstroms):
                    1          2          3          4          5
     1  C    0.000000
     2  H    1.084426   0.000000
     3  H    1.084425   1.751014   0.000000
     4  H    1.084426   1.751015   1.751014   0.000000
     5  C    1.530120   2.172100   2.172100   2.172105   0.000000
     6  H    2.172101   3.073554   2.525853   2.526155   1.084426
     7  H    2.172099   2.526149   3.073552   2.525854   1.084426
     8  H    2.172105   2.525854   2.526154   3.073560   1.084426
                    6          7          8
     6  H    0.000000
     7  H    1.751014   0.000000
     8  H    1.751014   1.751015   0.000000
 Stoichiometry    C2H6
 Framework group  C1[X(C2H6)]
 Deg. of freedom    18
 Full point group                 C1      NOp   1
 Largest Abelian subgroup         C1      NOp   1
 Largest concise Abelian subgroup C1      NOp   1
                         Standard orientation:                         
 ---------------------------------------------------------------------
 Center     Atomic      Atomic             Coordinates (Angstroms)
 Number     Number       Type             X           Y           Z
 ---------------------------------------------------------------------
      1          6           0       -0.765060    0.000000    0.000000
      2          1           0       -1.157438    0.580329   -0.827791
      3          1           0       -1.157438    0.426726    0.916473
      4          1           0       -1.157445   -1.007050   -0.088682
      5          6           0        0.765060    0.000000    0.000000
      6          1           0        1.157440   -0.579976    0.828037
      7          1           0        1.157437   -0.427117   -0.916292
      8          1           0        1.157445    1.007088    0.088252
 ---------------------------------------------------------------------
 Rotational constants (GHZ):     81.7753950     20.0240810     20.0240774
 Standard basis: 6-31G (6D, 7F)
 There are    30 symmetry adapted basis functions of A   symmetry.
 Integral buffers will be    131072 words long.
 Raffenetti 1 integral format.
 Two-electron integral symmetry is turned on.
    30 basis functions,    68 primitive gaussians,    30 cartesian basis functions
     9 alpha electrons        9 beta electrons
       nuclear repulsion energy        42.3747151633 Hartrees.
 NAtoms=    8 NActive=    8 NUniq=    8 SFac= 1.00D+00 NAtFMM=   50 NAOKFM=F Big=F
 One-electron integrals computed using PRISM.
 NBasis=    30 RedAO= T  NBF=    30
 NBsUse=    30 1.00D-06 NBFU=    30
 Initial guess read from the read-write file.
 B after Tr=     0.000000    0.000000    0.000000
         Rot=    1.000000    0.000000    0.000000    0.000000 Ang=   0.00 deg.
 Initial guess orbital symmetries:
       Occupied  (A) (A) (A) (A) (A) (A) (A) (A) (A)
       Virtual   (A) (A) (A) (A) (A) (A) (A) (A) (A) (A) (A) (A)
                 (A) (A) (A) (A) (A) (A) (A) (A) (A)
 Requested convergence on RMS density matrix=1.00D-08 within 128 cycles.
 Requested convergence on MAX density matrix=1.00D-06.
 Requested convergence on             energy=1.00D-06.
 No special actions if energy rises.
 Keep R1 ints in memory in canonical form, NReq=929629.
 SCF Done:  E(RHF) =  -79.1975722469     A.U. after   10 cycles
             Convg  =    0.3010D-08             -V/T =  1.9982
 Calling FoFJK, ICntrl=      2127 FMM=F ISym2X=0 I1Cent= 0 IOpClX= 0 NMat=1 NMatS=1 NMatT=0.
 ***** Axes restored to original set *****
 -------------------------------------------------------------------
 Center     Atomic                   Forces (Hartrees/Bohr)
 Number     Number              X              Y              Z
 -------------------------------------------------------------------
      1        6          -0.000038922   -0.000001839    0.000007079
      2        1          -0.000048316   -0.000029454    0.000033345
      3        1          -0.000053530    0.000032999    0.000019316
      4        1          -0.000059599   -0.000011251   -0.000026619
      5        6           0.000038934    0.000001423   -0.000006836
      6        1           0.000048077    0.000027516   -0.000035711
      7        1           0.000054015   -0.000033476   -0.000016328
      8        1           0.000059341    0.000014083    0.000025754
 -------------------------------------------------------------------
 Cartesian Forces:  Max     0.000059599 RMS     0.000034877

 GradGradGradGradGradGradGradGradGradGradGradGradGradGradGradGradGradGrad
 Berny optimization.
 Using GEDIIS/GDIIS optimizer.
 Internal  Forces:  Max     0.000203308 RMS     0.000057162
 Search for a local minimum.
 Step number   3 out of a maximum of   38
 All quantities printed in internal units (Hartrees-Bohrs-Radians)
 Mixed Optimization -- En-DIIS/RFO-DIIS
 Swaping is turned off.
 Update second derivatives using D2CorX and points    1    2    3
 DE= -6.41D-06 DEPred=-7.27D-06 R= 8.82D-01
 SS=  1.41D+00  RLast= 1.05D-02 DXNew= 5.0454D-01 3.1361D-02
 Trust test= 8.82D-01 RLast= 1.05D-02 DXMaxT set to 3.00D-01
 ITU=  1  1  0
     Eigenvalues ---    0.00230   0.05393   0.05393   0.05393   0.05393
     Eigenvalues ---    0.14223   0.16000   0.16000   0.16000   0.16000
     Eigenvalues ---    0.16000   0.27121   0.35521   0.35521   0.35522
     Eigenvalues ---    0.35522   0.35522   0.36124
 En-DIIS/RFO-DIIS IScMMF=        0 using points:     3    2
 RFO step:  Lambda=-1.86649002D-07.
 DidBck=F Rises=F RFO-DIIS coefs:    0.91009    0.08991
 Iteration  1 RMS(Cart)=  0.00048983 RMS(Int)=  0.00000019
 Iteration  2 RMS(Cart)=  0.00000009 RMS(Int)=  0.00000017
 Variable       Old X    -DE/DX   Delta X   Delta X   Delta X     New X
                                  (DIIS)     (GDIIS)  (Total)
    R1        2.04927   0.00001  -0.00007   0.00012   0.00005   2.04932
    R2        2.04927   0.00002  -0.00007   0.00012   0.00005   2.04932
    R3        2.04927   0.00001  -0.00007   0.00012   0.00005   2.04932
    R4        2.89151  -0.00020   0.00030  -0.00088  -0.00059   2.89092
    R5        2.04927   0.00001  -0.00007   0.00012   0.00005   2.04932
    R6        2.04927   0.00001  -0.00007   0.00012   0.00005   2.04932
    R7        2.04927   0.00001  -0.00007   0.00012   0.00005   2.04932
    A1        1.87928   0.00007   0.00026   0.00010   0.00036   1.87964
    A2        1.87928   0.00007   0.00026   0.00010   0.00036   1.87964
    A3        1.94103  -0.00006  -0.00024  -0.00009  -0.00034   1.94069
    A4        1.87928   0.00007   0.00026   0.00010   0.00036   1.87964
    A5        1.94103  -0.00006  -0.00024  -0.00009  -0.00034   1.94069
    A6        1.94103  -0.00006  -0.00025  -0.00010  -0.00034   1.94069
    A7        1.94103  -0.00006  -0.00024  -0.00009  -0.00034   1.94069
    A8        1.94103  -0.00006  -0.00024  -0.00009  -0.00033   1.94069
    A9        1.94103  -0.00006  -0.00025  -0.00010  -0.00034   1.94069
   A10        1.87928   0.00007   0.00026   0.00010   0.00036   1.87964
   A11        1.87928   0.00007   0.00026   0.00010   0.00036   1.87964
   A12        1.87928   0.00007   0.00026   0.00010   0.00036   1.87964
    D1        3.14117   0.00000   0.00003   0.00038   0.00041   3.14158
    D2       -1.04763   0.00000   0.00003   0.00038   0.00042  -1.04721
    D3        1.04677   0.00000   0.00003   0.00038   0.00042   1.04718
    D4        1.04677   0.00000   0.00003   0.00038   0.00041   1.04718
    D5        3.14117   0.00000   0.00003   0.00038   0.00041   3.14158
    D6       -1.04762   0.00000   0.00003   0.00038   0.00041  -1.04721
    D7       -1.04762   0.00000   0.00003   0.00038   0.00041  -1.04721
    D8        1.04677   0.00000   0.00003   0.00038   0.00041   1.04718
    D9        3.14117   0.00000   0.00003   0.00038   0.00041   3.14158
         Item               Value     Threshold  Converged?
 Maximum Force            0.000203     0.000450     YES
 RMS     Force            0.000057     0.000300     YES
 Maximum Displacement     0.000990     0.001800     YES
 RMS     Displacement     0.000490     0.001200     YES
 Predicted change in Energy=-1.970866D-07
 Optimization completed.
    -- Stationary point found.
                           ----------------------------
                           !   Optimized Parameters   !
                           ! (Angstroms and Degrees)  !
 --------------------------                            --------------------------
 ! Name  Definition              Value          Derivative Info.                !
 --------------------------------------------------------------------------------
 ! R1    R(1,2)                  1.0844         -DE/DX =    0.0                 !
 ! R2    R(1,3)                  1.0844         -DE/DX =    0.0                 !
 ! R3    R(1,4)                  1.0844         -DE/DX =    0.0                 !
 ! R4    R(1,5)                  1.5301         -DE/DX =   -0.0002              !
 ! R5    R(5,6)                  1.0844         -DE/DX =    0.0                 !
 ! R6    R(5,7)                  1.0844         -DE/DX =    0.0                 !
 ! R7    R(5,8)                  1.0844         -DE/DX =    0.0                 !
 ! A1    A(2,1,3)              107.6749         -DE/DX =    0.0001              !
 ! A2    A(2,1,4)              107.6749         -DE/DX =    0.0001              !
 ! A3    A(2,1,5)              111.2126         -DE/DX =   -0.0001              !
 ! A4    A(3,1,4)              107.6749         -DE/DX =    0.0001              !
 ! A5    A(3,1,5)              111.2127         -DE/DX =   -0.0001              !
 ! A6    A(4,1,5)              111.213          -DE/DX =   -0.0001              !
 ! A7    A(1,5,6)              111.2128         -DE/DX =   -0.0001              !
 ! A8    A(1,5,7)              111.2126         -DE/DX =   -0.0001              !
 ! A9    A(1,5,8)              111.213          -DE/DX =   -0.0001              !
 ! A10   A(6,5,7)              107.6749         -DE/DX =    0.0001              !
 ! A11   A(6,5,8)              107.6749         -DE/DX =    0.0001              !
 ! A12   A(7,5,8)              107.6749         -DE/DX =    0.0001              !
 ! D1    D(2,1,5,6)            179.9756         -DE/DX =    0.0                 !
 ! D2    D(2,1,5,7)            -60.0246         -DE/DX =    0.0                 !
 ! D3    D(2,1,5,8)             59.9754         -DE/DX =    0.0                 !
 ! D4    D(3,1,5,6)             59.9758         -DE/DX =    0.0                 !
 ! D5    D(3,1,5,7)            179.9756         -DE/DX =    0.0                 !
 ! D6    D(3,1,5,8)            -60.0244         -DE/DX =    0.0                 !
 ! D7    D(4,1,5,6)            -60.0243         -DE/DX =    0.0                 !
 ! D8    D(4,1,5,7)             59.9755         -DE/DX =    0.0                 !
 ! D9    D(4,1,5,8)            179.9755         -DE/DX =    0.0                 !
 --------------------------------------------------------------------------------
 GradGradGradGradGradGradGradGradGradGradGradGradGradGradGradGradGradGrad

                          Input orientation:                          
 ---------------------------------------------------------------------
 Center     Atomic      Atomic             Coordinates (Angstroms)
 Number     Number       Type             X           Y           Z
 ---------------------------------------------------------------------
      1          6           0        0.754327    0.037531   -0.121415
      2          1           0        1.290496   -0.647517    0.526050
      3          1           0        1.133291    1.035535    0.069246
      4          1           0        0.999984   -0.217704   -1.146349
      5          6           0       -0.754538   -0.037498    0.121413
      6          1           0       -1.290676    0.647857   -0.525753
      7          1           0       -1.133572   -1.035398   -0.069661
      8          1           0       -1.000156    0.217322    1.146458
 ---------------------------------------------------------------------
                    Distance matrix (angstroms):
                    1          2          3          4          5
     1  C    0.000000
     2  H    1.084426   0.000000
     3  H    1.084425   1.751014   0.000000
     4  H    1.084426   1.751015   1.751014   0.000000
     5  C    1.530120   2.172100   2.172100   2.172105   0.000000
     6  H    2.172101   3.073554   2.525853   2.526155   1.084426
     7  H    2.172099   2.526149   3.073552   2.525854   1.084426
     8  H    2.172105   2.525854   2.526154   3.073560   1.084426
                    6          7          8
     6  H    0.000000
     7  H    1.751014   0.000000
     8  H    1.751014   1.751015   0.000000
 Stoichiometry    C2H6
 Framework group  C1[X(C2H6)]
 Deg. of freedom    18
 Full point group                 C1      NOp   1
 Largest Abelian subgroup         C1      NOp   1
 Largest concise Abelian subgroup C1      NOp   1
                         Standard orientation:                         
 ---------------------------------------------------------------------
 Center     Atomic      Atomic             Coordinates (Angstroms)
 Number     Number       Type             X           Y           Z
 ---------------------------------------------------------------------
      1          6           0       -0.765060    0.000000    0.000000
      2          1           0       -1.157438    0.580329   -0.827791
      3          1           0       -1.157438    0.426726    0.916473
      4          1           0       -1.157445   -1.007050   -0.088682
      5          6           0        0.765060    0.000000    0.000000
      6          1           0        1.157440   -0.579976    0.828037
      7          1           0        1.157437   -0.427117   -0.916292
      8          1           0        1.157445    1.007088    0.088252
 ---------------------------------------------------------------------
 Rotational constants (GHZ):     81.7753950     20.0240810     20.0240774

 **********************************************************************

            Population analysis using the SCF density.

 **********************************************************************

 Orbital symmetries:
       Occupied  (A) (A) (A) (A) (A) (A) (A) (A) (A)
       Virtual   (A) (A) (A) (A) (A) (A) (A) (A) (A) (A) (A) (A)
                 (A) (A) (A) (A) (A) (A) (A) (A) (A)
 The electronic state is 1-A.
 Alpha  occ. eigenvalues --  -11.21078 -11.21022  -1.02256  -0.84807  -0.59830
 Alpha  occ. eigenvalues --   -0.59830  -0.50732  -0.48526  -0.48526
 Alpha virt. eigenvalues --    0.24162   0.30097   0.31597   0.31597   0.33724
 Alpha virt. eigenvalues --    0.33724   0.40642   0.73864   0.75702   0.75702
 Alpha virt. eigenvalues --    0.86171   0.86171   0.95446   1.21683   1.21683
 Alpha virt. eigenvalues --    1.22509   1.26529   1.26529   1.26728   1.30995
 Alpha virt. eigenvalues --    1.69923
          Condensed to atoms (all electrons):
              1          2          3          4          5          6
     1  C    5.128923   0.390391   0.390391   0.390391   0.277325  -0.041616
     2  H    0.390391   0.565654  -0.031763  -0.031763  -0.041617   0.004080
     3  H    0.390391  -0.031763   0.565654  -0.031763  -0.041616  -0.002923
     4  H    0.390391  -0.031763  -0.031763   0.565653  -0.041616  -0.002917
     5  C    0.277325  -0.041617  -0.041616  -0.041616   5.128923   0.390391
     6  H   -0.041616   0.004080  -0.002923  -0.002917   0.390391   0.565654
     7  H   -0.041617  -0.002917   0.004080  -0.002923   0.390391  -0.031763
     8  H   -0.041616  -0.002923  -0.002917   0.004080   0.390391  -0.031763
              7          8
     1  C   -0.041617  -0.041616
     2  H   -0.002917  -0.002923
     3  H    0.004080  -0.002917
     4  H   -0.002923   0.004080
     5  C    0.390391   0.390391
     6  H   -0.031763  -0.031763
     7  H    0.565654  -0.031763
     8  H   -0.031763   0.565653
 Mulliken atomic charges:
              1
     1  C   -0.452572
     2  H    0.150857
     3  H    0.150857
     4  H    0.150858
     5  C   -0.452573
     6  H    0.150858
     7  H    0.150857
     8  H    0.150858
 Sum of Mulliken atomic charges =   0.00000
 Mulliken charges with hydrogens summed into heavy atoms:
              1
     1  C    0.000000
     5  C    0.000000
 Sum of Mulliken charges with hydrogens summed into heavy atoms =   0.00000
 Electronic spatial extent (au):  <R**2>=            109.5915
 Charge=              0.0000 electrons
 Dipole moment (field-independent basis, Debye):
    X=              0.0000    Y=              0.0000    Z=              0.0000  Tot=              0.0000
 Quadrupole moment (field-independent basis, Debye-Ang):
   XX=            -15.5224   YY=            -15.0416   ZZ=            -15.0416
   XY=              0.0000   XZ=              0.0000   YZ=              0.0000
 Traceless Quadrupole moment (field-independent basis, Debye-Ang):
   XX=             -0.3205   YY=              0.1603   ZZ=              0.1603
   XY=              0.0000   XZ=              0.0000   YZ=              0.0000
 Octapole moment (field-independent basis, Debye-Ang**2):
  XXX=              0.0000  YYY=              0.0002  ZZZ=              0.0006  XYY=              0.0000
  XXY=              0.0000  XXZ=              0.0000  XZZ=              0.0000  YZZ=             -0.0002
  YYZ=             -0.0006  XYZ=              0.0000
 Hexadecapole moment (field-independent basis, Debye-Ang**3):
 XXXX=            -93.2608 YYYY=            -28.8086 ZZZZ=            -28.8086 XXXY=              0.0000
 XXXZ=              0.0000 YYYX=              1.0929 YYYZ=              0.0000 ZZZX=             -0.2941
 ZZZY=              0.0000 XXYY=            -19.4585 XXZZ=            -19.4585 YYZZ=             -9.6029
 XXYZ=              0.0000 YYXZ=              0.2941 ZZXY=             -1.0928
 N-N= 4.237471516326D+01 E-N=-2.685530103824D+02  KE= 7.934058665767D+01
 1\1\GINC-COMPUTE-0-42\FOpt\RHF\6-31G\C2H6\SINGHBH\08-Jul-2017\0\\# opt
  freq hf/6-31g\\Ethane Optimization\\0,1\C,0.7543268892,0.0375308398,-
 0.1214153973\H,1.2904959151,-0.6475172159,0.5260501171\H,1.1332905769,
 1.0355353596,0.0692462757\H,0.9999838841,-0.2177042607,-1.146348511\C,
 -0.7545381554,-0.0374979825,0.1214125789\H,-1.2906760728,0.6478574841,
 -0.5257525391\H,-1.1335718651,-1.0353975645,-0.0696609108\H,-1.0001561
 721,0.2173223402,1.1464583864\\Version=EM64L-G09RevB.01\State=1-A\HF=-
 79.1975722\RMSD=3.010e-09\RMSF=3.488e-05\Dipole=0.,0.,0.\Quadrupole=-0
 .2284421,0.1182892,0.1101529,-0.0172875,0.0559324,0.0027827\PG=C01 [X(
 C2H6)]\\@


 AS FAR AS THE LAWS OF MATHEMATICS REFER TO REALITY,
 THEY ARE NOT CERTAIN; AND AS FAR AS THEY ARE CERTAIN,
 THEY DO NOT REFER TO REALITY.

                                         -- ALBERT EINSTEIN
 Job cpu time:  0 days  0 hours  0 minutes  2.8 seconds.
 File lengths (MBytes):  RWF=      5 Int=      0 D2E=      0 Chk=      1 Scr=      1
 Normal termination of Gaussian 09 at Sat Jul  8 19:21:54 2017.
 Link1:  Proceeding to internal job step number  2.
 --------------------------------------------------------------
 #N Geom=AllCheck Guess=TCheck SCRF=Check GenChk RHF/6-31G Freq
 --------------------------------------------------------------
 1/10=4,29=7,30=1,38=1,40=1/1,3;
 2/12=2,40=1/2;
 3/5=1,6=6,11=1,14=-4,16=1,25=1,30=1,70=2,71=2,116=1/1,2,3;
 4/5=101/1;
 5/5=2,98=1/2;
 8/6=4,10=90,11=11/1;
 10/13=10,15=4/2;
 11/6=3,8=1,9=11,15=111,16=1/1,2,10;
 10/6=1/2;
 6/7=2,8=2,9=2,10=2,18=1,28=1/1;
 7/8=1,10=1,25=1/1,2,3,16;
 1/10=4,30=1/3;
 99//99;
 -------------------
 Ethane Optimization
 -------------------
 Redundant internal coordinates taken from checkpoint file:
  min1007.chk
 Charge =  0 Multiplicity = 1
 C,0,0.7543268892,0.0375308398,-0.1214153973
 H,0,1.2904959151,-0.6475172159,0.5260501171
 H,0,1.1332905769,1.0355353596,0.0692462757
 H,0,0.9999838841,-0.2177042607,-1.146348511
 C,0,-0.7545381554,-0.0374979825,0.1214125789
 H,0,-1.2906760728,0.6478574841,-0.5257525391
 H,0,-1.1335718651,-1.0353975645,-0.0696609108
 H,0,-1.0001561721,0.2173223402,1.1464583864
 Recover connectivity data from disk.

 GradGradGradGradGradGradGradGradGradGradGradGradGradGradGradGradGradGrad
 Berny optimization.
 Initialization pass.
                           ----------------------------
                           !    Initial Parameters    !
                           ! (Angstroms and Degrees)  !
 --------------------------                            --------------------------
 ! Name  Definition              Value          Derivative Info.                !
 --------------------------------------------------------------------------------
 ! R1    R(1,2)                  1.0844         calculate D2E/DX2 analytically  !
 ! R2    R(1,3)                  1.0844         calculate D2E/DX2 analytically  !
 ! R3    R(1,4)                  1.0844         calculate D2E/DX2 analytically  !
 ! R4    R(1,5)                  1.5301         calculate D2E/DX2 analytically  !
 ! R5    R(5,6)                  1.0844         calculate D2E/DX2 analytically  !
 ! R6    R(5,7)                  1.0844         calculate D2E/DX2 analytically  !
 ! R7    R(5,8)                  1.0844         calculate D2E/DX2 analytically  !
 ! A1    A(2,1,3)              107.6749         calculate D2E/DX2 analytically  !
 ! A2    A(2,1,4)              107.6749         calculate D2E/DX2 analytically  !
 ! A3    A(2,1,5)              111.2126         calculate D2E/DX2 analytically  !
 ! A4    A(3,1,4)              107.6749         calculate D2E/DX2 analytically  !
 ! A5    A(3,1,5)              111.2127         calculate D2E/DX2 analytically  !
 ! A6    A(4,1,5)              111.213          calculate D2E/DX2 analytically  !
 ! A7    A(1,5,6)              111.2128         calculate D2E/DX2 analytically  !
 ! A8    A(1,5,7)              111.2126         calculate D2E/DX2 analytically  !
 ! A9    A(1,5,8)              111.213          calculate D2E/DX2 analytically  !
 ! A10   A(6,5,7)              107.6749         calculate D2E/DX2 analytically  !
 ! A11   A(6,5,8)              107.6749         calculate D2E/DX2 analytically  !
 ! A12   A(7,5,8)              107.6749         calculate D2E/DX2 analytically  !
 ! D1    D(2,1,5,6)            179.9756         calculate D2E/DX2 analytically  !
 ! D2    D(2,1,5,7)            -60.0246         calculate D2E/DX2 analytically  !
 ! D3    D(2,1,5,8)             59.9754         calculate D2E/DX2 analytically  !
 ! D4    D(3,1,5,6)             59.9758         calculate D2E/DX2 analytically  !
 ! D5    D(3,1,5,7)            179.9756         calculate D2E/DX2 analytically  !
 ! D6    D(3,1,5,8)            -60.0244         calculate D2E/DX2 analytically  !
 ! D7    D(4,1,5,6)            -60.0243         calculate D2E/DX2 analytically  !
 ! D8    D(4,1,5,7)             59.9755         calculate D2E/DX2 analytically  !
 ! D9    D(4,1,5,8)            179.9755         calculate D2E/DX2 analytically  !
 --------------------------------------------------------------------------------
 Trust Radius=3.00D-01 FncErr=1.00D-07 GrdErr=1.00D-07
 Number of steps in this run=      2 maximum allowed number of steps=      2.
 GradGradGradGradGradGradGradGradGradGradGradGradGradGradGradGradGradGrad

                          Input orientation:                          
 ---------------------------------------------------------------------
 Center     Atomic      Atomic             Coordinates (Angstroms)
 Number     Number       Type             X           Y           Z
 ---------------------------------------------------------------------
      1          6           0        0.754327    0.037531   -0.121415
      2          1           0        1.290496   -0.647517    0.526050
      3          1           0        1.133291    1.035535    0.069246
      4          1           0        0.999984   -0.217704   -1.146349
      5          6           0       -0.754538   -0.037498    0.121413
      6          1           0       -1.290676    0.647857   -0.525753
      7          1           0       -1.133572   -1.035398   -0.069661
      8          1           0       -1.000156    0.217322    1.146458
 ---------------------------------------------------------------------
                    Distance matrix (angstroms):
                    1          2          3          4          5
     1  C    0.000000
     2  H    1.084426   0.000000
     3  H    1.084425   1.751014   0.000000
     4  H    1.084426   1.751015   1.751014   0.000000
     5  C    1.530120   2.172100   2.172100   2.172105   0.000000
     6  H    2.172101   3.073554   2.525853   2.526155   1.084426
     7  H    2.172099   2.526149   3.073552   2.525854   1.084426
     8  H    2.172105   2.525854   2.526154   3.073560   1.084426
                    6          7          8
     6  H    0.000000
     7  H    1.751014   0.000000
     8  H    1.751014   1.751015   0.000000
 Stoichiometry    C2H6
 Framework group  C1[X(C2H6)]
 Deg. of freedom    18
 Full point group                 C1      NOp   1
 Largest Abelian subgroup         C1      NOp   1
 Largest concise Abelian subgroup C1      NOp   1
                         Standard orientation:                         
 ---------------------------------------------------------------------
 Center     Atomic      Atomic             Coordinates (Angstroms)
 Number     Number       Type             X           Y           Z
 ---------------------------------------------------------------------
      1          6           0       -0.765060    0.000000    0.000000
      2          1           0       -1.157438    0.580329   -0.827791
      3          1           0       -1.157438    0.426726    0.916473
      4          1           0       -1.157445   -1.007050   -0.088682
      5          6           0        0.765060    0.000000    0.000000
      6          1           0        1.157440   -0.579976    0.828037
      7          1           0        1.157437   -0.427117   -0.916292
      8          1           0        1.157445    1.007088    0.088252
 ---------------------------------------------------------------------
 Rotational constants (GHZ):     81.7753950     20.0240810     20.0240774
 Standard basis: 6-31G (6D, 7F)
 There are    30 symmetry adapted basis functions of A   symmetry.
 Integral buffers will be    131072 words long.
 Raffenetti 1 integral format.
 Two-electron integral symmetry is turned on.
    30 basis functions,    68 primitive gaussians,    30 cartesian basis functions
     9 alpha electrons        9 beta electrons
       nuclear repulsion energy        42.3747151633 Hartrees.
 NAtoms=    8 NActive=    8 NUniq=    8 SFac= 1.00D+00 NAtFMM=   50 NAOKFM=F Big=F
 One-electron integrals computed using PRISM.
 NBasis=    30 RedAO= T  NBF=    30
 NBsUse=    30 1.00D-06 NBFU=    30
 Initial guess read from the checkpoint file:   min1007.chk
 B after Tr=     0.000000    0.000000    0.000000
         Rot=    1.000000    0.000000    0.000000    0.000000 Ang=   0.00 deg.
 Initial guess orbital symmetries:
       Occupied  (A) (A) (A) (A) (A) (A) (A) (A) (A)
       Virtual   (A) (A) (A) (A) (A) (A) (A) (A) (A) (A) (A) (A)
                 (A) (A) (A) (A) (A) (A) (A) (A) (A)
 Requested convergence on RMS density matrix=1.00D-08 within 128 cycles.
 Requested convergence on MAX density matrix=1.00D-06.
 Requested convergence on             energy=1.00D-06.
 No special actions if energy rises.
 Keep R1 ints in memory in canonical form, NReq=929629.
 SCF Done:  E(RHF) =  -79.1975722469     A.U. after    1 cycles
             Convg  =    0.2544D-09             -V/T =  1.9982
 Range of M.O.s used for correlation:     1    30
 NBasis=    30 NAE=     9 NBE=     9 NFC=     0 NFV=     0
 NROrb=     30 NOA=     9 NOB=     9 NVA=    21 NVB=    21
          Differentiating once with respect to electric field.
                with respect to dipole field.
          Electric field/nuclear overlap derivatives assumed to be zero.
          Keep R1 ints in memory in canonical form, NReq=908832.
          There are     3 degrees of freedom in the 1st order CPHF.  IDoFFX=0.
      3 vectors produced by pass  0 Test12= 6.30D-15 3.33D-08 XBig12= 5.00D+00 1.27D+00.
 AX will form     3 AO Fock derivatives at one time.
      3 vectors produced by pass  1 Test12= 6.30D-15 3.33D-08 XBig12= 9.09D-02 1.19D-01.
      3 vectors produced by pass  2 Test12= 6.30D-15 3.33D-08 XBig12= 5.07D-03 4.67D-02.
      3 vectors produced by pass  3 Test12= 6.30D-15 3.33D-08 XBig12= 1.14D-04 3.83D-03.
      3 vectors produced by pass  4 Test12= 6.30D-15 3.33D-08 XBig12= 6.36D-07 3.76D-04.
      3 vectors produced by pass  5 Test12= 6.30D-15 3.33D-08 XBig12= 1.56D-09 1.52D-05.
      3 vectors produced by pass  6 Test12= 6.30D-15 3.33D-08 XBig12= 9.53D-12 1.30D-06.
      1 vectors produced by pass  7 Test12= 6.30D-15 3.33D-08 XBig12= 5.39D-14 6.60D-08.
 Inverted reduced A of dimension    22 with in-core refinement.
 End of Minotr Frequency-dependent properties file   721 does not exist.
 End of Minotr Frequency-dependent properties file   722 does not exist.
 Symmetrizing basis deriv contribution to polar:
 IMax=3 JMax=2 DiffMx= 0.00D+00
 G2DrvN: will do     9 centers at a time, making    1 passes doing MaxLOS=1.
 Calling FoFCou, ICntrl=  3107 FMM=F I1Cent=   0 AccDes= 0.00D+00.
 FoFDir/FoFCou used for L=0 through L=1.
 End of G2Drv Frequency-dependent properties file   721 does not exist.
 End of G2Drv Frequency-dependent properties file   722 does not exist.
          IDoAtm=11111111
          Differentiating once with respect to electric field.
                with respect to dipole field.
          Differentiating once with respect to nuclear coordinates.
          Keep R1 ints in memory in canonical form, NReq=909000.
          There are    27 degrees of freedom in the 1st order CPHF.  IDoFFX=5.
 Will reuse    3 saved solutions.
     21 vectors produced by pass  0 Test12= 7.00D-16 3.70D-09 XBig12= 3.50D-02 8.17D-02.
 AX will form    21 AO Fock derivatives at one time.
     21 vectors produced by pass  1 Test12= 7.00D-16 3.70D-09 XBig12= 7.41D-04 1.10D-02.
     21 vectors produced by pass  2 Test12= 7.00D-16 3.70D-09 XBig12= 1.21D-05 1.52D-03.
     21 vectors produced by pass  3 Test12= 7.00D-16 3.70D-09 XBig12= 5.98D-08 8.82D-05.
     21 vectors produced by pass  4 Test12= 7.00D-16 3.70D-09 XBig12= 1.49D-10 5.05D-06.
     19 vectors produced by pass  5 Test12= 7.00D-16 3.70D-09 XBig12= 4.31D-13 2.99D-07.
      3 vectors produced by pass  6 Test12= 7.00D-16 3.70D-09 XBig12= 2.08D-15 2.03D-08.
 Inverted reduced A of dimension   127 with in-core refinement.
 Isotropic polarizability for W=    0.000000       22.22 Bohr**3.
 End of Minotr Frequency-dependent properties file   721 does not exist.
 End of Minotr Frequency-dependent properties file   722 does not exist.

 **********************************************************************

            Population analysis using the SCF density.

 **********************************************************************

 Orbital symmetries:
       Occupied  (A) (A) (A) (A) (A) (A) (A) (A) (A)
       Virtual   (A) (A) (A) (A) (A) (A) (A) (A) (A) (A) (A) (A)
                 (A) (A) (A) (A) (A) (A) (A) (A) (A)
 The electronic state is 1-A.
 Alpha  occ. eigenvalues --  -11.21078 -11.21022  -1.02256  -0.84807  -0.59830
 Alpha  occ. eigenvalues --   -0.59830  -0.50732  -0.48526  -0.48526
 Alpha virt. eigenvalues --    0.24162   0.30097   0.31597   0.31597   0.33724
 Alpha virt. eigenvalues --    0.33724   0.40642   0.73864   0.75702   0.75702
 Alpha virt. eigenvalues --    0.86171   0.86171   0.95446   1.21683   1.21683
 Alpha virt. eigenvalues --    1.22509   1.26529   1.26529   1.26728   1.30995
 Alpha virt. eigenvalues --    1.69923
          Condensed to atoms (all electrons):
              1          2          3          4          5          6
     1  C    5.128923   0.390391   0.390391   0.390391   0.277325  -0.041616
     2  H    0.390391   0.565654  -0.031763  -0.031763  -0.041617   0.004080
     3  H    0.390391  -0.031763   0.565654  -0.031763  -0.041616  -0.002923
     4  H    0.390391  -0.031763  -0.031763   0.565653  -0.041616  -0.002917
     5  C    0.277325  -0.041617  -0.041616  -0.041616   5.128923   0.390391
     6  H   -0.041616   0.004080  -0.002923  -0.002917   0.390391   0.565654
     7  H   -0.041617  -0.002917   0.004080  -0.002923   0.390391  -0.031763
     8  H   -0.041616  -0.002923  -0.002917   0.004080   0.390391  -0.031763
              7          8
     1  C   -0.041617  -0.041616
     2  H   -0.002917  -0.002923
     3  H    0.004080  -0.002917
     4  H   -0.002923   0.004080
     5  C    0.390391   0.390391
     6  H   -0.031763  -0.031763
     7  H    0.565654  -0.031763
     8  H   -0.031763   0.565653
 Mulliken atomic charges:
              1
     1  C   -0.452572
     2  H    0.150857
     3  H    0.150857
     4  H    0.150858
     5  C   -0.452572
     6  H    0.150858
     7  H    0.150857
     8  H    0.150858
 Sum of Mulliken atomic charges =   0.00000
 Mulliken charges with hydrogens summed into heavy atoms:
              1
     1  C    0.000000
     5  C    0.000000
 Sum of Mulliken charges with hydrogens summed into heavy atoms =   0.00000
 APT atomic charges:
              1
     1  C    0.101793
     2  H   -0.033931
     3  H   -0.033931
     4  H   -0.033931
     5  C    0.101794
     6  H   -0.033931
     7  H   -0.033931
     8  H   -0.033931
 Sum of APT charges=   0.00000
 APT Atomic charges with hydrogens summed into heavy atoms:
              1
     1  C    0.000000
     2  H    0.000000
     3  H    0.000000
     4  H    0.000000
     5  C    0.000000
     6  H    0.000000
     7  H    0.000000
     8  H    0.000000
 Sum of APT charges=   0.00000
 Electronic spatial extent (au):  <R**2>=            109.5915
 Charge=              0.0000 electrons
 Dipole moment (field-independent basis, Debye):
    X=              0.0000    Y=              0.0000    Z=              0.0000  Tot=              0.0000
 Quadrupole moment (field-independent basis, Debye-Ang):
   XX=            -15.5224   YY=            -15.0416   ZZ=            -15.0416
   XY=              0.0000   XZ=              0.0000   YZ=              0.0000
 Traceless Quadrupole moment (field-independent basis, Debye-Ang):
   XX=             -0.3205   YY=              0.1603   ZZ=              0.1603
   XY=              0.0000   XZ=              0.0000   YZ=              0.0000
 Octapole moment (field-independent basis, Debye-Ang**2):
  XXX=              0.0000  YYY=              0.0002  ZZZ=              0.0006  XYY=              0.0000
  XXY=              0.0000  XXZ=              0.0000  XZZ=              0.0000  YZZ=             -0.0002
  YYZ=             -0.0006  XYZ=              0.0000
 Hexadecapole moment (field-independent basis, Debye-Ang**3):
 XXXX=            -93.2608 YYYY=            -28.8086 ZZZZ=            -28.8086 XXXY=              0.0000
 XXXZ=              0.0000 YYYX=              1.0929 YYYZ=              0.0000 ZZZX=             -0.2941
 ZZZY=              0.0000 XXYY=            -19.4585 XXZZ=            -19.4585 YYZZ=             -9.6029
 XXYZ=              0.0000 YYXZ=              0.2941 ZZXY=             -1.0928
 N-N= 4.237471516326D+01 E-N=-2.685530103460D+02  KE= 7.934058664167D+01
  Exact polarizability:  22.867   0.000  21.900   0.000   0.000  21.900
 Approx polarizability:  16.875   0.000  17.955   0.000   0.000  17.955
 Calling FoFJK, ICntrl=    100127 FMM=F ISym2X=0 I1Cent= 0 IOpClX= 0 NMat=1 NMatS=1 NMatT=0.
 Full mass-weighted force constant matrix:
 Low frequencies ---  -22.5056    0.0004    0.0011    0.0011   13.4627   13.4820
 Low frequencies ---  311.9709  919.5655  919.5658
 Harmonic frequencies (cm**-1), IR intensities (KM/Mole), Raman scattering
 activities (A**4/AMU), depolarization ratios for plane and unpolarized
 incident light, reduced masses (AMU), force constants (mDyne/A),
 and normal coordinates:
                     1                      2                      3
                     A                      A                      A
 Frequencies --   311.9709               919.5655               919.5658
 Red. masses --     1.0078                 1.0564                 1.0564
 Frc consts  --     0.0578                 0.5263                 0.5263
 IR Inten    --     0.0000                 5.1604                 5.1603
 Raman Activ --     0.0000                 0.0000                 0.0000
 Depolar (P) --     0.0017                 0.7496                 0.7500
 Depolar (U) --     0.0033                 0.8569                 0.8571
  Atom  AN      X      Y      Z        X      Y      Z        X      Y      Z
     1   6     0.00   0.00   0.00     0.00   0.00  -0.05     0.00  -0.05   0.00
     2   1     0.00   0.33   0.23    -0.39   0.04   0.18     0.33   0.19   0.01
     3   1     0.00  -0.37   0.17     0.48   0.00   0.17     0.18   0.21  -0.03
     4   1     0.00   0.04  -0.41    -0.09   0.01   0.21    -0.50   0.16  -0.02
     5   6     0.00   0.00   0.00     0.00   0.00  -0.05     0.00  -0.05   0.00
     6   1     0.00   0.33   0.23    -0.39   0.04   0.18     0.33   0.19   0.01
     7   1     0.00  -0.37   0.17     0.48   0.00   0.17     0.18   0.21  -0.03
     8   1     0.00   0.04  -0.41    -0.09   0.01   0.21    -0.50   0.16  -0.02
                     4                      5                      6
                     A                      A                      A
 Frequencies --  1062.2938              1356.1507              1356.1513
 Red. masses --     3.6389                 1.4499                 1.4499
 Frc consts  --     2.4194                 1.5710                 1.5710
 IR Inten    --     0.0000                 0.0000                 0.0000
 Raman Activ --    16.1488                 4.3180                 4.3179
 Depolar (P) --     0.2890                 0.7500                 0.7500
 Depolar (U) --     0.4484                 0.8571                 0.8571
  Atom  AN      X      Y      Z        X      Y      Z        X      Y      Z
     1   6     0.35   0.00   0.00     0.00   0.14   0.00     0.00   0.00   0.14
     2   1     0.36   0.00   0.00    -0.30  -0.18  -0.08     0.42  -0.08  -0.12
     3   1     0.36   0.00   0.00    -0.21  -0.20   0.06    -0.46   0.06  -0.10
     4   1     0.36   0.00   0.00     0.51  -0.07   0.02     0.05   0.01  -0.23
     5   6    -0.35   0.00   0.00     0.00  -0.14   0.00     0.00   0.00  -0.14
     6   1    -0.36   0.00   0.00     0.30   0.18   0.08    -0.42   0.08   0.12
     7   1    -0.36   0.00   0.00     0.22   0.20  -0.06     0.46  -0.06   0.10
     8   1    -0.36   0.00   0.00    -0.51   0.07  -0.01    -0.05  -0.01   0.23
                     7                      8                      9
                     A                      A                      A
 Frequencies --  1581.6795              1582.2243              1659.5399
 Red. masses --     1.2073                 1.1996                 1.0254
 Frc consts  --     1.7795                 1.7694                 1.6639
 IR Inten    --     0.0000                 4.4974                 0.0000
 Raman Activ --     5.0004                 0.0000                46.7905
 Depolar (P) --     0.7479                 0.7481                 0.7500
 Depolar (U) --     0.8558                 0.8559                 0.8571
  Atom  AN      X      Y      Z        X      Y      Z        X      Y      Z
     1   6    -0.10   0.00   0.00     0.09   0.00   0.00     0.00  -0.03   0.01
     2   1     0.37   0.10  -0.14    -0.37  -0.09   0.13    -0.23   0.16   0.23
     3   1     0.37   0.07   0.15    -0.37  -0.07  -0.15    -0.01   0.45  -0.21
     4   1     0.37  -0.17  -0.01    -0.37   0.16   0.01     0.24  -0.08  -0.24
     5   6     0.10   0.00   0.00     0.09   0.00   0.00     0.00   0.03  -0.01
     6   1    -0.37  -0.10   0.14    -0.37  -0.09   0.13     0.23  -0.16  -0.23
     7   1    -0.37  -0.07  -0.15    -0.37  -0.07  -0.15     0.01  -0.45   0.21
     8   1    -0.37   0.17   0.01    -0.37   0.16   0.01    -0.24   0.08   0.24
                    10                     11                     12
                     A                      A                      A
 Frequencies --  1659.5399              1663.1226              1663.1227
 Red. masses --     1.0254                 1.0647                 1.0647
 Frc consts  --     1.6639                 1.7352                 1.7352
 IR Inten    --     0.0000                10.6330                10.6331
 Raman Activ --    46.7905                 0.0000                 0.0000
 Depolar (P) --     0.7500                 0.7500                 0.7500
 Depolar (U) --     0.8571                 0.8571                 0.8571
  Atom  AN      X      Y      Z        X      Y      Z        X      Y      Z
     1   6     0.00  -0.01  -0.03     0.00  -0.04   0.03     0.00  -0.03  -0.04
     2   1     0.14   0.38   0.19    -0.21   0.03   0.16     0.05   0.43   0.27
     3   1    -0.27  -0.06  -0.10     0.07   0.46  -0.18    -0.21   0.09  -0.17
     4   1     0.13  -0.09   0.43     0.15  -0.04  -0.39     0.16  -0.12   0.34
     5   6     0.00   0.01   0.03     0.00  -0.04   0.03     0.00  -0.03  -0.04
     6   1    -0.14  -0.38  -0.19    -0.21   0.03   0.16     0.05   0.43   0.27
     7   1     0.27   0.06   0.09     0.07   0.46  -0.18    -0.21   0.09  -0.17
     8   1    -0.13   0.09  -0.43     0.15  -0.05  -0.39     0.16  -0.12   0.34
                    13                     14                     15
                     A                      A                      A
 Frequencies --  3183.6364              3191.1390              3239.1823
 Red. masses --     1.0331                 1.0366                 1.1004
 Frc consts  --     6.1693                 6.2193                 6.8028
 IR Inten    --    72.1392                 0.0000                 0.0000
 Raman Activ --     0.0000               239.1256               154.3330
 Depolar (P) --     0.5197                 0.0188                 0.7500
 Depolar (U) --     0.6840                 0.0368                 0.8571
  Atom  AN      X      Y      Z        X      Y      Z        X      Y      Z
     1   6     0.03   0.00   0.00    -0.04   0.00   0.00     0.00  -0.06   0.00
     2   1    -0.13   0.22  -0.32     0.14  -0.22   0.31    -0.12   0.17  -0.27
     3   1    -0.13   0.16   0.35     0.14  -0.16  -0.35    -0.08   0.07   0.20
     4   1    -0.13  -0.38  -0.03     0.14   0.38   0.03     0.20   0.53   0.05
     5   6     0.03   0.00   0.00     0.04   0.00   0.00     0.00   0.06   0.00
     6   1    -0.13   0.22  -0.32    -0.14   0.22  -0.31     0.12  -0.17   0.27
     7   1    -0.13   0.16   0.35    -0.14   0.16   0.35     0.08  -0.07  -0.20
     8   1    -0.13  -0.38  -0.03    -0.14  -0.38  -0.03    -0.20  -0.53  -0.05
                    16                     17                     18
                     A                      A                      A
 Frequencies --  3239.1860              3266.0050              3266.0088
 Red. masses --     1.1004                 1.1014                 1.1014
 Frc consts  --     6.8028                 6.9217                 6.9217
 IR Inten    --     0.0000                96.5503                96.5507
 Raman Activ --   154.3329                 0.0000                 0.0000
 Depolar (P) --     0.7500                 0.7491                 0.7453
 Depolar (U) --     0.8571                 0.8566                 0.8541
  Atom  AN      X      Y      Z        X      Y      Z        X      Y      Z
     1   6     0.00   0.00  -0.06     0.00   0.07   0.00     0.00   0.00   0.07
     2   1     0.16  -0.26   0.34     0.12  -0.17   0.27    -0.17   0.25  -0.34
     3   1    -0.19   0.22   0.45     0.08  -0.07  -0.20     0.19  -0.21  -0.44
     4   1     0.02   0.07  -0.01    -0.21  -0.53  -0.05    -0.02  -0.07   0.01
     5   6     0.00   0.00   0.06     0.00   0.07   0.00     0.00   0.00   0.07
     6   1    -0.16   0.26  -0.35     0.12  -0.17   0.27    -0.17   0.25  -0.34
     7   1     0.19  -0.22  -0.44     0.08  -0.07  -0.20     0.19  -0.21  -0.44
     8   1    -0.02  -0.07   0.01    -0.21  -0.53  -0.05    -0.02  -0.07   0.01

 -------------------
 - Thermochemistry -
 -------------------
 Temperature   298.150 Kelvin.  Pressure   1.00000 Atm.
 Atom     1 has atomic number  6 and mass  12.00000
 Atom     2 has atomic number  1 and mass   1.00783
 Atom     3 has atomic number  1 and mass   1.00783
 Atom     4 has atomic number  1 and mass   1.00783
 Atom     5 has atomic number  6 and mass  12.00000
 Atom     6 has atomic number  1 and mass   1.00783
 Atom     7 has atomic number  1 and mass   1.00783
 Atom     8 has atomic number  1 and mass   1.00783
 Molecular mass:    30.04695 amu.
 Principal axes and moments of inertia in atomic units:
                           1         2         3
     Eigenvalues --    22.06949  90.12854  90.12856
           X            1.00000   0.00000   0.00000
           Y            0.00000   1.00000   0.00000
           Z            0.00000   0.00000   1.00000
 This molecule is an asymmetric top.
 Rotational symmetry number  1.
 Rotational temperatures (Kelvin)      3.92460     0.96100     0.96100
 Rotational constants (GHZ):          81.77540    20.02408    20.02408
 Zero-point vibrational energy     210064.8 (Joules/Mol)
                                   50.20668 (Kcal/Mol)
 Warning -- explicit consideration of   1 degrees of freedom as
           vibrations may cause significant error
 Vibrational temperatures:    448.86  1323.05  1323.05  1528.40  1951.20
          (Kelvin)           1951.20  2275.68  2276.47  2387.70  2387.70
                             2392.86  2392.86  4580.54  4591.33  4660.45
                             4660.46  4699.05  4699.05
 
 Zero-point correction=                           0.080009 (Hartree/Particle)
 Thermal correction to Energy=                    0.083411
 Thermal correction to Enthalpy=                  0.084356
 Thermal correction to Gibbs Free Energy=         0.056930
 Sum of electronic and zero-point Energies=            -79.117563
 Sum of electronic and thermal Energies=               -79.114161
 Sum of electronic and thermal Enthalpies=             -79.113217
 Sum of electronic and thermal Free Energies=          -79.140642
 
                     E (Thermal)             CV                S
                      KCal/Mol        Cal/Mol-Kelvin    Cal/Mol-Kelvin
 Total                   52.341              9.401             57.722
 Electronic               0.000              0.000              0.000
 Translational            0.889              2.981             36.134
 Rotational               0.889              2.981             19.822
 Vibrational             50.564              3.439              1.766
 Vibration     1          0.700              1.651              1.352
                       Q            Log10(Q)             Ln(Q)
 Total Bot       0.651909D-26        -26.185813        -60.295063
 Total V=0       0.412948D+11         10.615896         24.444003
 Vib (Bot)       0.210100D-36        -36.677574        -84.453234
 Vib (Bot)    1  0.605429D+00         -0.217937         -0.501818
 Vib (V=0)       0.133087D+01          0.124135          0.285831
 Vib (V=0)    1  0.128520D+01          0.108972          0.250917
 Electronic      0.100000D+01          0.000000          0.000000
 Translational   0.647375D+07          6.811156         15.683266
 Rotational      0.479297D+04          3.680605          8.474906
 ***** Axes restored to original set *****
 -------------------------------------------------------------------
 Center     Atomic                   Forces (Hartrees/Bohr)
 Number     Number              X              Y              Z
 -------------------------------------------------------------------
      1        6          -0.000038923   -0.000001839    0.000007080
      2        1          -0.000048316   -0.000029454    0.000033345
      3        1          -0.000053529    0.000032999    0.000019316
      4        1          -0.000059599   -0.000011251   -0.000026620
      5        6           0.000038932    0.000001423   -0.000006835
      6        1           0.000048077    0.000027515   -0.000035711
      7        1           0.000054016   -0.000033475   -0.000016328
      8        1           0.000059341    0.000014083    0.000025753
 -------------------------------------------------------------------
 Cartesian Forces:  Max     0.000059599 RMS     0.000034877

 GradGradGradGradGradGradGradGradGradGradGradGradGradGradGradGradGradGrad
 Berny optimization.
 Internal  Forces:  Max     0.000203307 RMS     0.000057162
 Search for a local minimum.
 Step number   1 out of a maximum of    2
 All quantities printed in internal units (Hartrees-Bohrs-Radians)
 Second derivative matrix not updated -- analytic derivatives used.
 ITU=  0
     Eigenvalues ---    0.00227   0.05509   0.05509   0.05738   0.05738
     Eigenvalues ---    0.14233   0.14547   0.14547   0.15377   0.20888
     Eigenvalues ---    0.20888   0.34625   0.36707   0.36707   0.36983
     Eigenvalues ---    0.36983   0.37824   0.38014
 Angle between quadratic step and forces=  50.65 degrees.
 Linear search not attempted -- first point.
 Iteration  1 RMS(Cart)=  0.00043479 RMS(Int)=  0.00000009
 Iteration  2 RMS(Cart)=  0.00000008 RMS(Int)=  0.00000003
 Variable       Old X    -DE/DX   Delta X   Delta X   Delta X     New X
                                 (Linear)    (Quad)   (Total)
    R1        2.04927   0.00001   0.00000   0.00002   0.00002   2.04929
    R2        2.04927   0.00002   0.00000   0.00002   0.00002   2.04929
    R3        2.04927   0.00001   0.00000   0.00002   0.00002   2.04929
    R4        2.89151  -0.00020   0.00000  -0.00040  -0.00040   2.89111
    R5        2.04927   0.00001   0.00000   0.00002   0.00002   2.04929
    R6        2.04927   0.00001   0.00000   0.00002   0.00002   2.04929
    R7        2.04927   0.00001   0.00000   0.00002   0.00002   2.04929
    A1        1.87928   0.00007   0.00000   0.00034   0.00034   1.87962
    A2        1.87928   0.00007   0.00000   0.00034   0.00034   1.87962
    A3        1.94103  -0.00006   0.00000  -0.00032  -0.00032   1.94071
    A4        1.87928   0.00007   0.00000   0.00034   0.00034   1.87962
    A5        1.94103  -0.00006   0.00000  -0.00032  -0.00032   1.94071
    A6        1.94103  -0.00006   0.00000  -0.00032  -0.00032   1.94071
    A7        1.94103  -0.00006   0.00000  -0.00032  -0.00032   1.94071
    A8        1.94103  -0.00006   0.00000  -0.00031  -0.00031   1.94071
    A9        1.94103  -0.00006   0.00000  -0.00032  -0.00032   1.94071
   A10        1.87928   0.00007   0.00000   0.00034   0.00034   1.87962
   A11        1.87928   0.00007   0.00000   0.00034   0.00034   1.87962
   A12        1.87928   0.00007   0.00000   0.00034   0.00034   1.87962
    D1        3.14117   0.00000   0.00000   0.00043   0.00043  -3.14159
    D2       -1.04763   0.00000   0.00000   0.00043   0.00043  -1.04720
    D3        1.04677   0.00000   0.00000   0.00043   0.00043   1.04720
    D4        1.04677   0.00000   0.00000   0.00042   0.00042   1.04720
    D5        3.14117   0.00000   0.00000   0.00043   0.00043  -3.14159
    D6       -1.04762   0.00000   0.00000   0.00043   0.00043  -1.04720
    D7       -1.04762   0.00000   0.00000   0.00043   0.00043  -1.04720
    D8        1.04677   0.00000   0.00000   0.00043   0.00043   1.04720
    D9        3.14117   0.00000   0.00000   0.00043   0.00043  -3.14159
         Item               Value     Threshold  Converged?
 Maximum Force            0.000203     0.000450     YES
 RMS     Force            0.000057     0.000300     YES
 Maximum Displacement     0.000864     0.001800     YES
 RMS     Displacement     0.000435     0.001200     YES
 Predicted change in Energy=-1.687644D-07
 Optimization completed.
    -- Stationary point found.
                           ----------------------------
                           !   Optimized Parameters   !
                           ! (Angstroms and Degrees)  !
 --------------------------                            --------------------------
 ! Name  Definition              Value          Derivative Info.                !
 --------------------------------------------------------------------------------
 ! R1    R(1,2)                  1.0844         -DE/DX =    0.0                 !
 ! R2    R(1,3)                  1.0844         -DE/DX =    0.0                 !
 ! R3    R(1,4)                  1.0844         -DE/DX =    0.0                 !
 ! R4    R(1,5)                  1.5301         -DE/DX =   -0.0002              !
 ! R5    R(5,6)                  1.0844         -DE/DX =    0.0                 !
 ! R6    R(5,7)                  1.0844         -DE/DX =    0.0                 !
 ! R7    R(5,8)                  1.0844         -DE/DX =    0.0                 !
 ! A1    A(2,1,3)              107.6749         -DE/DX =    0.0001              !
 ! A2    A(2,1,4)              107.6749         -DE/DX =    0.0001              !
 ! A3    A(2,1,5)              111.2126         -DE/DX =   -0.0001              !
 ! A4    A(3,1,4)              107.6749         -DE/DX =    0.0001              !
 ! A5    A(3,1,5)              111.2127         -DE/DX =   -0.0001              !
 ! A6    A(4,1,5)              111.213          -DE/DX =   -0.0001              !
 ! A7    A(1,5,6)              111.2128         -DE/DX =   -0.0001              !
 ! A8    A(1,5,7)              111.2126         -DE/DX =   -0.0001              !
 ! A9    A(1,5,8)              111.213          -DE/DX =   -0.0001              !
 ! A10   A(6,5,7)              107.6749         -DE/DX =    0.0001              !
 ! A11   A(6,5,8)              107.6749         -DE/DX =    0.0001              !
 ! A12   A(7,5,8)              107.6749         -DE/DX =    0.0001              !
 ! D1    D(2,1,5,6)           -180.0244         -DE/DX =    0.0                 !
 ! D2    D(2,1,5,7)            -60.0246         -DE/DX =    0.0                 !
 ! D3    D(2,1,5,8)             59.9754         -DE/DX =    0.0                 !
 ! D4    D(3,1,5,6)             59.9758         -DE/DX =    0.0                 !
 ! D5    D(3,1,5,7)           -180.0244         -DE/DX =    0.0                 !
 ! D6    D(3,1,5,8)            -60.0244         -DE/DX =    0.0                 !
 ! D7    D(4,1,5,6)            -60.0243         -DE/DX =    0.0                 !
 ! D8    D(4,1,5,7)             59.9755         -DE/DX =    0.0                 !
 ! D9    D(4,1,5,8)           -180.0245         -DE/DX =    0.0                 !
 --------------------------------------------------------------------------------
 GradGradGradGradGradGradGradGradGradGradGradGradGradGradGradGradGradGrad

 1\1\GINC-COMPUTE-0-42\Freq\RHF\6-31G\C2H6\SINGHBH\08-Jul-2017\0\\#N Ge
 om=AllCheck Guess=TCheck SCRF=Check GenChk RHF/6-31G Freq\\Ethane Opti
 mization\\0,1\C,0.7543268892,0.0375308398,-0.1214153973\H,1.2904959151
 ,-0.6475172159,0.5260501171\H,1.1332905769,1.0355353596,0.0692462757\H
 ,0.9999838841,-0.2177042607,-1.146348511\C,-0.7545381554,-0.0374979825
 ,0.1214125789\H,-1.2906760728,0.6478574841,-0.5257525391\H,-1.13357186
 51,-1.0353975645,-0.0696609108\H,-1.0001561721,0.2173223402,1.14645838
 64\\Version=EM64L-G09RevB.01\State=1-A\HF=-79.1975722\RMSD=2.544e-10\R
 MSF=3.488e-05\ZeroPoint=0.0800094\Thermal=0.0834114\Dipole=0.,0.,0.\Di
 poleDeriv=0.041959,-0.004524,0.0146523,-0.0045306,0.1327769,0.0007075,
 0.0146513,0.0007499,0.1306446,-0.0436399,0.0720093,-0.0613467,0.097830
 9,-0.0345678,0.1009657,-0.087983,0.1037967,-0.0235862,-0.0092621,-0.07
 56409,-0.0050263,-0.1111787,-0.1569038,-0.0399774,-0.0141486,-0.046150
 5,0.0643721,0.0109431,0.0081588,0.0517218,0.0178749,0.0586947,-0.06171
 66,0.0874793,-0.058375,-0.1714306,0.041959,-0.004531,0.0146503,-0.0045
 234,0.132777,0.0007498,0.0146532,0.0007076,0.1306447,-0.0436337,0.0720
 226,-0.0613253,0.0978699,-0.0346569,0.100962,-0.0879354,0.1037987,-0.0
 235029,-0.0092714,-0.0756532,-0.0050389,-0.1111819,-0.1568599,-0.04005
 94,-0.0141973,-0.0462324,0.0643372,0.0109461,0.0081584,0.0517128,0.017
 839,0.0587399,-0.0616315,0.0874804,-0.0582949,-0.1714789\Polar=22.8400
 923,0.046744,21.9020415,-0.1513705,-0.0075234,21.9240903\PolarDeriv=4.
 1799045,0.6443434,-2.8118958,-1.6979232,0.4984542,-1.8645148,0.7132464
 ,-4.2003528,-3.5822441,0.4981585,-2.1922924,2.844313,-1.921389,0.49876
 35,-2.4156803,-3.25298,2.7751186,4.4169584,3.3954968,-2.4349333,1.1114
 538,2.3996495,-0.5326286,0.8357405,-1.4897944,2.7244214,-3.4827988,-0.
 6353429,2.3142435,-1.2540456,1.5877475,-0.6649578,1.2405395,2.4263558,
 -2.4783341,3.0045263,2.0868237,2.9964893,1.450536,0.781215,0.0257808,0
 .3714973,1.4917269,2.9350068,7.543567,0.0424604,1.0244053,0.0904569,0.
 6032683,0.0987904,0.8118767,1.5761401,1.9235115,0.2517492,1.104732,-0.
 8095842,0.4789203,-2.69168,0.0892242,1.1090954,-0.4523415,1.4543162,-0
 .754941,0.1755515,-2.1629818,-1.0978939,-1.0463508,0.1482321,-0.221352
 4,2.3866644,-1.5039858,-8.1542217,-4.179917,-0.6442327,2.8124669,1.697
 8528,-0.4981949,1.863957,-0.7134389,4.2009089,3.5797135,-0.4984809,2.1
 949717,-2.8415728,1.9212313,-0.4978795,2.418454,3.252437,-2.7726687,-4
 .4195839,-3.395257,2.4359004,-1.1121629,-2.3985434,0.5325283,-0.835072
 1,1.4900556,-2.7250292,3.485259,0.6354834,-2.3143396,1.2533795,-1.5874
 12,0.6646328,-1.2411536,-2.4256507,2.4782755,-3.0022378,-2.0872732,-2.
 9963765,-1.4505089,-0.7824878,-0.0263696,-0.3715363,-1.4917824,-2.9351
 245,-7.5421062,-0.0427883,-1.0263675,-0.0911601,-0.6034197,-0.0995138,
 -0.8131951,-1.5763379,-1.9239381,-0.2530336,-1.1045097,0.8083937,-0.47
 88093,2.6919171,-0.0887943,-1.1091669,0.4523283,-1.4541468,0.7535505,-
 0.1750416,2.1623609,1.0965229,1.0463245,-0.1480678,0.2205112,-2.386628
 7,1.5020211,8.1558431\HyperPolar=0.0000847,-0.0000176,-0.0039343,0.017
 8507,0.0006713,-0.0019151,-0.0190369,0.0038425,-0.0178371,0.0183722\PG
 =C01 [X(C2H6)]\NImag=0\\0.53829788,-0.00507635,0.64014645,0.01643110,0
 .00081727,0.63775364,-0.12225958,0.08414572,-0.07998747,0.13569530,0.0
 8577191,-0.17284522,0.10634652,-0.09489367,0.18404051,-0.08166557,0.10
 652641,-0.16143827,0.08923894,-0.12020877,0.17149504,-0.08926907,-0.08
 468162,-0.01677723,0.00677427,0.01788235,0.00397243,0.09870543,-0.0869
 2050,-0.29782939,-0.04587840,-0.00842819,-0.02295611,-0.00546015,0.096
 54171,0.32487927,-0.01735183,-0.04626576,-0.06944565,0.00841883,0.0233
 9166,0.00506965,0.01762883,0.05198595,0.06764715,-0.07053672,0.0137371
 6,0.05404041,0.00429566,-0.00512774,-0.01816030,0.00295970,-0.00271945
 ,-0.01269559,0.07775991,0.01434906,-0.07621792,-0.06259512,-0.00554595
 ,0.00687728,0.02522453,0.00774356,-0.00805232,-0.03622484,-0.01519637,
 0.07503841,0.05629269,-0.06238310,-0.30978833,0.00495039,-0.00655841,-
 0.02228511,0.00120132,-0.00098511,-0.00601956,-0.06301876,0.07040344,0
 .33843194,-0.21087524,-0.00557726,0.01804752,-0.02039662,-0.00352014,0
 .00595664,-0.01486905,0.00226723,0.00330368,-0.01009162,-0.00129459,-0
 .00101452,0.53829823,-0.00557594,-0.09900707,0.00090169,0.02619177,0.0
 0312945,-0.00527041,-0.03860859,0.00120447,0.00680871,0.00986863,0.001
 41925,-0.00113021,-0.00507757,0.64014601,0.01804797,0.00089311,-0.1016
 3450,-0.02467349,-0.00201056,0.00558332,-0.00720325,-0.00029060,0.0019
 8080,0.04012216,0.00271325,-0.00301103,0.01643169,0.00081668,0.6377536
 0,-0.02039610,0.02619925,-0.02466636,-0.00766451,-0.00113925,0.0021186
 8,0.00171020,-0.00066660,-0.00057117,0.00184521,0.00033761,0.00050661,
 -0.12225178,0.08417963,-0.07994518,0.13568713,-0.00352363,0.00313103,-
 0.00201110,-0.00114073,0.00121041,-0.00015962,0.00042481,0.00080613,-0
 .00036447,0.00060120,-0.00026155,-0.00043617,0.08580813,-0.17294674,0.
 10634674,-0.09492926,0.18415517,0.00595312,-0.00527048,0.00558139,0.00
 211729,-0.00015939,0.00086634,-0.00087098,-0.00032343,-0.00010935,-0.0
 0059052,-0.00032895,0.00081753,-0.08162126,0.10652397,-0.16134542,0.08
 919378,-0.12020788,0.17138929,-0.01487010,-0.03860562,-0.00721313,0.00
 170750,0.00042525,-0.00087067,-0.00796113,0.00042600,0.00165391,0.0019
 5247,0.00027205,0.00039267,-0.08928183,-0.08468897,-0.01681690,0.00677
 516,0.01787928,0.00397981,0.09871817,0.00226602,0.00120383,-0.00029112
 ,-0.00066693,0.00080419,-0.00032292,0.00042541,0.00169523,0.00012152,-
 0.00049985,0.00025422,0.00083035,-0.08692674,-0.29777821,-0.04597048,-
 0.00843387,-0.02296444,-0.00547227,0.09655069,0.32482187,0.00330825,0.
 00681101,0.00198234,-0.00057061,-0.00036441,-0.00011047,0.00165580,0.0
 0012205,0.00067813,-0.00038645,0.00054768,0.00020030,-0.01739391,-0.04
 636092,-0.06948333,0.00841660,0.02337863,0.00507708,0.01766991,0.05209
 092,0.06769119,-0.01009108,0.00985873,0.04012516,0.00184799,0.00060129
 ,-0.00059017,0.00194966,-0.00050021,-0.00038666,-0.00818460,-0.0006653
 8,0.00068960,-0.07053208,0.01371104,0.05403701,0.00429469,-0.00511979,
 -0.01816124,0.00295976,-0.00271473,-0.01269959,0.07775567,-0.00129057,
 0.00141829,0.00271026,0.00033797,-0.00026051,-0.00032908,0.00027237,0.
 00025272,0.00054723,-0.00066359,0.00094264,0.00025921,0.01432093,-0.07
 616717,-0.06249812,-0.00554750,0.00686999,0.02523844,0.00774133,-0.008
 03669,-0.03622497,-0.01517094,0.07498074,-0.00101575,-0.00112845,-0.00
 301064,0.00050612,-0.00043664,0.00081951,0.00039309,0.00082969,0.00019
 882,0.00068905,0.00026001,0.00165425,0.05629016,-0.06228950,-0.3098434
 4,0.00494705,-0.00654613,-0.02227687,0.00120440,-0.00098599,-0.0060352
 5,-0.06301412,0.07029703,0.33849362\\0.00003892,0.00000184,-0.00000708
 ,0.00004832,0.00002945,-0.00003334,0.00005353,-0.00003300,-0.00001932,
 0.00005960,0.00001125,0.00002662,-0.00003893,-0.00000142,0.00000684,-0
 .00004808,-0.00002752,0.00003571,-0.00005402,0.00003348,0.00001633,-0.
 00005934,-0.00001408,-0.00002575\\\@


 TELEVISION IS CALLED A MEDIUM BECAUSE IT ISN'T
 RARE, AND IT ISN'T WELL DONE.
 Job cpu time:  0 days  0 hours  0 minutes  1.9 seconds.
 File lengths (MBytes):  RWF=      5 Int=      0 D2E=      0 Chk=      1 Scr=      1
 Normal termination of Gaussian 09 at Sat Jul  8 19:21:57 2017.
